LAMMPS data file. CGCMM style. atom_style full generated by VMD/TopoTools v1.7 on Sat Jan 28 19:11:41 -0500 2023
 18 atoms
 18 bonds
 24 angles
 36 dihedrals
 6 impropers
 1 atom types
 1 bond types
 1 angle types
 1 dihedral types
 1 improper types
 -2.365000 7.095000  xlo xhi
 0.000200 8.192800  ylo yhi
 0.000000 60.000000  zlo zhi
 -4.730000 0.000000 0.000000 xy xz yz

# Pair Coeffs
#
# 1  C

# Bond Coeffs
#
# 1  

# Angle Coeffs
#
# 1  C-C-C

# Dihedral Coeffs
#
# 1  C-C-C-C

# Improper Coeffs
#
# 1  C-C-C-C

 Masses

 1 12.010700 # C

 Atoms # full

1 1 1 0.000000 0.291000 7.616000 30.000000 # C MOL
2 1 1 0.000000 4.551000 7.616000 30.000000 # C MOL
3 1 1 0.000000 4.551000 0.577000 30.000000 # C MOL
4 1 1 0.000000 0.291000 0.577000 30.000000 # C MOL
5 1 1 0.000000 3.755000 1.710000 30.000000 # C MOL
6 1 1 0.000000 1.055000 1.710000 30.000000 # C MOL
7 1 1 0.000000 1.055000 6.525000 30.000000 # C MOL
8 1 1 0.000000 3.755000 6.525000 30.000000 # C MOL
9 1 1 0.000000 1.730000 2.879000 30.000000 # C MOL
10 1 1 0.000000 1.015000 4.118000 30.000000 # C MOL
11 1 1 0.000000 1.730000 5.356000 30.000000 # C MOL
12 1 1 0.000000 -0.415000 4.118000 30.000000 # C MOL
13 1 1 0.000000 6.545000 4.118000 30.000000 # C MOL
14 1 1 0.000000 -1.815000 4.118000 30.000000 # C MOL
15 1 1 0.000000 5.145000 4.118000 30.000000 # C MOL
16 1 1 0.000000 3.080000 5.356000 30.000000 # C MOL
17 1 1 0.000000 3.795000 4.118000 30.000000 # C MOL
18 1 1 0.000000 3.080000 2.879000 30.000000 # C MOL

 Bonds

1 1 1 7
2 1 2 8
3 1 3 5
4 1 4 6
5 1 5 18
6 1 6 9
7 1 7 11
8 1 8 16
9 1 9 10
10 1 9 18
11 1 10 11
12 1 10 12
13 1 11 16
14 1 12 14
15 1 13 15
16 1 15 17
17 1 16 17
18 1 17 18

 Angles

1 1 3 5 18
2 1 4 6 9
3 1 1 7 11
4 1 2 8 16
5 1 10 9 18
6 1 6 9 10
7 1 6 9 18
8 1 9 10 11
9 1 9 10 12
10 1 11 10 12
11 1 7 11 10
12 1 10 11 16
13 1 7 11 16
14 1 10 12 14
15 1 13 15 17
16 1 8 16 17
17 1 11 16 17
18 1 8 16 11
19 1 15 17 18
20 1 16 17 18
21 1 15 17 16
22 1 9 18 17
23 1 5 18 17
24 1 5 18 9

 Dihedrals

1 1 3 5 18 17
2 1 3 5 18 9
3 1 4 6 9 10
4 1 4 6 9 18
5 1 1 7 11 10
6 1 1 7 11 16
7 1 2 8 16 17
8 1 2 8 16 11
9 1 18 9 10 11
10 1 18 9 10 12
11 1 6 9 10 11
12 1 6 9 10 12
13 1 10 9 18 17
14 1 10 9 18 5
15 1 6 9 18 17
16 1 6 9 18 5
17 1 9 10 11 7
18 1 9 10 11 16
19 1 12 10 11 7
20 1 12 10 11 16
21 1 9 10 12 14
22 1 11 10 12 14
23 1 10 11 16 17
24 1 10 11 16 8
25 1 7 11 16 17
26 1 7 11 16 8
27 1 13 15 17 18
28 1 13 15 17 16
29 1 8 16 17 18
30 1 8 16 17 15
31 1 11 16 17 18
32 1 11 16 17 15
33 1 15 17 18 9
34 1 15 17 18 5
35 1 16 17 18 9
36 1 16 17 18 5

 Impropers

1 1 6 9 18 10
2 1 12 10 11 9
3 1 10 7 11 16
4 1 17 8 16 11
5 1 18 15 17 16
6 1 17 9 18 5

