ITEM: TIMESTEP
0
ITEM: NUMBER OF ATOMS
2500
ITEM: BOX BOUNDS
-18.9873	18.9873
-18.9873	18.9873
-4.21941	4.21941
ITEM: ATOMS index type x y z
1	3	-18.4873	-18.4873	-4.71941
2	3	-17.7278	-18.4873	-4.71941
3	3	-16.9684	-18.4873	-4.71941
4	3	-16.2089	-18.4873	-4.71941
5	3	-15.4494	-18.4873	-4.71941
6	3	-14.6899	-18.4873	-4.71941
7	3	-13.9304	-18.4873	-4.71941
8	3	-13.1709	-18.4873	-4.71941
9	3	-12.4114	-18.4873	-4.71941
10	3	-11.6519	-18.4873	-4.71941
11	3	-10.8924	-18.4873	-4.71941
12	3	-10.1329	-18.4873	-4.71941
13	3	-9.37342	-18.4873	-4.71941
14	3	-8.61392	-18.4873	-4.71941
15	3	-7.85443	-18.4873	-4.71941
16	3	-7.09494	-18.4873	-4.71941
17	3	-6.33544	-18.4873	-4.71941
18	3	-5.57595	-18.4873	-4.71941
19	3	-4.81646	-18.4873	-4.71941
20	3	-4.05696	-18.4873	-4.71941
21	3	-3.29747	-18.4873	-4.71941
22	3	-2.53797	-18.4873	-4.71941
23	3	-1.77848	-18.4873	-4.71941
24	3	-1.01899	-18.4873	-4.71941
25	3	-0.259494	-18.4873	-4.71941
26	3	0.5	-18.4873	-4.71941
27	3	1.25949	-18.4873	-4.71941
28	3	2.01899	-18.4873	-4.71941
29	3	2.77848	-18.4873	-4.71941
30	3	3.53797	-18.4873	-4.71941
31	3	4.29747	-18.4873	-4.71941
32	3	5.05696	-18.4873	-4.71941
33	3	5.81646	-18.4873	-4.71941
34	3	6.57595	-18.4873	-4.71941
35	3	7.33544	-18.4873	-4.71941
36	3	8.09494	-18.4873	-4.71941
37	3	8.85443	-18.4873	-4.71941
38	3	9.61392	-18.4873	-4.71941
39	3	10.3734	-18.4873	-4.71941
40	3	11.1329	-18.4873	-4.71941
41	3	11.8924	-18.4873	-4.71941
42	3	12.6519	-18.4873	-4.71941
43	3	13.4114	-18.4873	-4.71941
44	3	14.1709	-18.4873	-4.71941
45	3	14.9304	-18.4873	-4.71941
46	3	15.6899	-18.4873	-4.71941
47	3	16.4494	-18.4873	-4.71941
48	3	17.2089	-18.4873	-4.71941
49	3	17.9684	-18.4873	-4.71941
50	3	18.7278	-18.4873	-4.71941
51	3	-18.4873	-17.7278	-4.71941
52	3	-17.7278	-17.7278	-4.71941
53	3	-16.9684	-17.7278	-4.71941
54	3	-16.2089	-17.7278	-4.71941
55	3	-15.4494	-17.7278	-4.71941
56	3	-14.6899	-17.7278	-4.71941
57	3	-13.9304	-17.7278	-4.71941
58	3	-13.1709	-17.7278	-4.71941
59	3	-12.4114	-17.7278	-4.71941
60	3	-11.6519	-17.7278	-4.71941
61	3	-10.8924	-17.7278	-4.71941
62	3	-10.1329	-17.7278	-4.71941
63	3	-9.37342	-17.7278	-4.71941
64	3	-8.61392	-17.7278	-4.71941
65	3	-7.85443	-17.7278	-4.71941
66	3	-7.09494	-17.7278	-4.71941
67	3	-6.33544	-17.7278	-4.71941
68	3	-5.57595	-17.7278	-4.71941
69	3	-4.81646	-17.7278	-4.71941
70	3	-4.05696	-17.7278	-4.71941
71	3	-3.29747	-17.7278	-4.71941
72	3	-2.53797	-17.7278	-4.71941
73	3	-1.77848	-17.7278	-4.71941
74	3	-1.01899	-17.7278	-4.71941
75	3	-0.259494	-17.7278	-4.71941
76	3	0.5	-17.7278	-4.71941
77	3	1.25949	-17.7278	-4.71941
78	3	2.01899	-17.7278	-4.71941
79	3	2.77848	-17.7278	-4.71941
80	3	3.53797	-17.7278	-4.71941
81	3	4.29747	-17.7278	-4.71941
82	3	5.05696	-17.7278	-4.71941
83	3	5.81646	-17.7278	-4.71941
84	3	6.57595	-17.7278	-4.71941
85	3	7.33544	-17.7278	-4.71941
86	3	8.09494	-17.7278	-4.71941
87	3	8.85443	-17.7278	-4.71941
88	3	9.61392	-17.7278	-4.71941
89	3	10.3734	-17.7278	-4.71941
90	3	11.1329	-17.7278	-4.71941
91	3	11.8924	-17.7278	-4.71941
92	3	12.6519	-17.7278	-4.71941
93	3	13.4114	-17.7278	-4.71941
94	3	14.1709	-17.7278	-4.71941
95	3	14.9304	-17.7278	-4.71941
96	3	15.6899	-17.7278	-4.71941
97	3	16.4494	-17.7278	-4.71941
98	3	17.2089	-17.7278	-4.71941
99	3	17.9684	-17.7278	-4.71941
100	3	18.7278	-17.7278	-4.71941
101	3	-18.4873	-16.9684	-4.71941
102	3	-17.7278	-16.9684	-4.71941
103	3	-16.9684	-16.9684	-4.71941
104	3	-16.2089	-16.9684	-4.71941
105	3	-15.4494	-16.9684	-4.71941
106	3	-14.6899	-16.9684	-4.71941
107	3	-13.9304	-16.9684	-4.71941
108	3	-13.1709	-16.9684	-4.71941
109	3	-12.4114	-16.9684	-4.71941
110	3	-11.6519	-16.9684	-4.71941
111	3	-10.8924	-16.9684	-4.71941
112	3	-10.1329	-16.9684	-4.71941
113	3	-9.37342	-16.9684	-4.71941
114	3	-8.61392	-16.9684	-4.71941
115	3	-7.85443	-16.9684	-4.71941
116	3	-7.09494	-16.9684	-4.71941
117	3	-6.33544	-16.9684	-4.71941
118	3	-5.57595	-16.9684	-4.71941
119	3	-4.81646	-16.9684	-4.71941
120	3	-4.05696	-16.9684	-4.71941
121	3	-3.29747	-16.9684	-4.71941
122	3	-2.53797	-16.9684	-4.71941
123	3	-1.77848	-16.9684	-4.71941
124	3	-1.01899	-16.9684	-4.71941
125	3	-0.259494	-16.9684	-4.71941
126	3	0.5	-16.9684	-4.71941
127	3	1.25949	-16.9684	-4.71941
128	3	2.01899	-16.9684	-4.71941
129	3	2.77848	-16.9684	-4.71941
130	3	3.53797	-16.9684	-4.71941
131	3	4.29747	-16.9684	-4.71941
132	3	5.05696	-16.9684	-4.71941
133	3	5.81646	-16.9684	-4.71941
134	3	6.57595	-16.9684	-4.71941
135	3	7.33544	-16.9684	-4.71941
136	3	8.09494	-16.9684	-4.71941
137	3	8.85443	-16.9684	-4.71941
138	3	9.61392	-16.9684	-4.71941
139	3	10.3734	-16.9684	-4.71941
140	3	11.1329	-16.9684	-4.71941
141	3	11.8924	-16.9684	-4.71941
142	3	12.6519	-16.9684	-4.71941
143	3	13.4114	-16.9684	-4.71941
144	3	14.1709	-16.9684	-4.71941
145	3	14.9304	-16.9684	-4.71941
146	3	15.6899	-16.9684	-4.71941
147	3	16.4494	-16.9684	-4.71941
148	3	17.2089	-16.9684	-4.71941
149	3	17.9684	-16.9684	-4.71941
150	3	18.7278	-16.9684	-4.71941
151	3	-18.4873	-16.2089	-4.71941
152	3	-17.7278	-16.2089	-4.71941
153	3	-16.9684	-16.2089	-4.71941
154	3	-16.2089	-16.2089	-4.71941
155	3	-15.4494	-16.2089	-4.71941
156	3	-14.6899	-16.2089	-4.71941
157	3	-13.9304	-16.2089	-4.71941
158	3	-13.1709	-16.2089	-4.71941
159	3	-12.4114	-16.2089	-4.71941
160	3	-11.6519	-16.2089	-4.71941
161	3	-10.8924	-16.2089	-4.71941
162	3	-10.1329	-16.2089	-4.71941
163	3	-9.37342	-16.2089	-4.71941
164	3	-8.61392	-16.2089	-4.71941
165	3	-7.85443	-16.2089	-4.71941
166	3	-7.09494	-16.2089	-4.71941
167	3	-6.33544	-16.2089	-4.71941
168	3	-5.57595	-16.2089	-4.71941
169	3	-4.81646	-16.2089	-4.71941
170	3	-4.05696	-16.2089	-4.71941
171	3	-3.29747	-16.2089	-4.71941
172	3	-2.53797	-16.2089	-4.71941
173	3	-1.77848	-16.2089	-4.71941
174	3	-1.01899	-16.2089	-4.71941
175	3	-0.259494	-16.2089	-4.71941
176	3	0.5	-16.2089	-4.71941
177	3	1.25949	-16.2089	-4.71941
178	3	2.01899	-16.2089	-4.71941
179	3	2.77848	-16.2089	-4.71941
180	3	3.53797	-16.2089	-4.71941
181	3	4.29747	-16.2089	-4.71941
182	3	5.05696	-16.2089	-4.71941
183	3	5.81646	-16.2089	-4.71941
184	3	6.57595	-16.2089	-4.71941
185	3	7.33544	-16.2089	-4.71941
186	3	8.09494	-16.2089	-4.71941
187	3	8.85443	-16.2089	-4.71941
188	3	9.61392	-16.2089	-4.71941
189	3	10.3734	-16.2089	-4.71941
190	3	11.1329	-16.2089	-4.71941
191	3	11.8924	-16.2089	-4.71941
192	3	12.6519	-16.2089	-4.71941
193	3	13.4114	-16.2089	-4.71941
194	3	14.1709	-16.2089	-4.71941
195	3	14.9304	-16.2089	-4.71941
196	3	15.6899	-16.2089	-4.71941
197	3	16.4494	-16.2089	-4.71941
198	3	17.2089	-16.2089	-4.71941
199	3	17.9684	-16.2089	-4.71941
200	3	18.7278	-16.2089	-4.71941
201	3	-18.4873	-15.4494	-4.71941
202	3	-17.7278	-15.4494	-4.71941
203	3	-16.9684	-15.4494	-4.71941
204	3	-16.2089	-15.4494	-4.71941
205	3	-15.4494	-15.4494	-4.71941
206	3	-14.6899	-15.4494	-4.71941
207	3	-13.9304	-15.4494	-4.71941
208	3	-13.1709	-15.4494	-4.71941
209	3	-12.4114	-15.4494	-4.71941
210	3	-11.6519	-15.4494	-4.71941
211	3	-10.8924	-15.4494	-4.71941
212	3	-10.1329	-15.4494	-4.71941
213	3	-9.37342	-15.4494	-4.71941
214	3	-8.61392	-15.4494	-4.71941
215	3	-7.85443	-15.4494	-4.71941
216	3	-7.09494	-15.4494	-4.71941
217	3	-6.33544	-15.4494	-4.71941
218	3	-5.57595	-15.4494	-4.71941
219	3	-4.81646	-15.4494	-4.71941
220	3	-4.05696	-15.4494	-4.71941
221	3	-3.29747	-15.4494	-4.71941
222	3	-2.53797	-15.4494	-4.71941
223	3	-1.77848	-15.4494	-4.71941
224	3	-1.01899	-15.4494	-4.71941
225	3	-0.259494	-15.4494	-4.71941
226	3	0.5	-15.4494	-4.71941
227	3	1.25949	-15.4494	-4.71941
228	3	2.01899	-15.4494	-4.71941
229	3	2.77848	-15.4494	-4.71941
230	3	3.53797	-15.4494	-4.71941
231	3	4.29747	-15.4494	-4.71941
232	3	5.05696	-15.4494	-4.71941
233	3	5.81646	-15.4494	-4.71941
234	3	6.57595	-15.4494	-4.71941
235	3	7.33544	-15.4494	-4.71941
236	3	8.09494	-15.4494	-4.71941
237	3	8.85443	-15.4494	-4.71941
238	3	9.61392	-15.4494	-4.71941
239	3	10.3734	-15.4494	-4.71941
240	3	11.1329	-15.4494	-4.71941
241	3	11.8924	-15.4494	-4.71941
242	3	12.6519	-15.4494	-4.71941
243	3	13.4114	-15.4494	-4.71941
244	3	14.1709	-15.4494	-4.71941
245	3	14.9304	-15.4494	-4.71941
246	3	15.6899	-15.4494	-4.71941
247	3	16.4494	-15.4494	-4.71941
248	3	17.2089	-15.4494	-4.71941
249	3	17.9684	-15.4494	-4.71941
250	3	18.7278	-15.4494	-4.71941
251	3	-18.4873	-14.6899	-4.71941
252	3	-17.7278	-14.6899	-4.71941
253	3	-16.9684	-14.6899	-4.71941
254	3	-16.2089	-14.6899	-4.71941
255	3	-15.4494	-14.6899	-4.71941
256	3	-14.6899	-14.6899	-4.71941
257	3	-13.9304	-14.6899	-4.71941
258	3	-13.1709	-14.6899	-4.71941
259	3	-12.4114	-14.6899	-4.71941
260	3	-11.6519	-14.6899	-4.71941
261	3	-10.8924	-14.6899	-4.71941
262	3	-10.1329	-14.6899	-4.71941
263	3	-9.37342	-14.6899	-4.71941
264	3	-8.61392	-14.6899	-4.71941
265	3	-7.85443	-14.6899	-4.71941
266	3	-7.09494	-14.6899	-4.71941
267	3	-6.33544	-14.6899	-4.71941
268	3	-5.57595	-14.6899	-4.71941
269	3	-4.81646	-14.6899	-4.71941
270	3	-4.05696	-14.6899	-4.71941
271	3	-3.29747	-14.6899	-4.71941
272	3	-2.53797	-14.6899	-4.71941
273	3	-1.77848	-14.6899	-4.71941
274	3	-1.01899	-14.6899	-4.71941
275	3	-0.259494	-14.6899	-4.71941
276	3	0.5	-14.6899	-4.71941
277	3	1.25949	-14.6899	-4.71941
278	3	2.01899	-14.6899	-4.71941
279	3	2.77848	-14.6899	-4.71941
280	3	3.53797	-14.6899	-4.71941
281	3	4.29747	-14.6899	-4.71941
282	3	5.05696	-14.6899	-4.71941
283	3	5.81646	-14.6899	-4.71941
284	3	6.57595	-14.6899	-4.71941
285	3	7.33544	-14.6899	-4.71941
286	3	8.09494	-14.6899	-4.71941
287	3	8.85443	-14.6899	-4.71941
288	3	9.61392	-14.6899	-4.71941
289	3	10.3734	-14.6899	-4.71941
290	3	11.1329	-14.6899	-4.71941
291	3	11.8924	-14.6899	-4.71941
292	3	12.6519	-14.6899	-4.71941
293	3	13.4114	-14.6899	-4.71941
294	3	14.1709	-14.6899	-4.71941
295	3	14.9304	-14.6899	-4.71941
296	3	15.6899	-14.6899	-4.71941
297	3	16.4494	-14.6899	-4.71941
298	3	17.2089	-14.6899	-4.71941
299	3	17.9684	-14.6899	-4.71941
300	3	18.7278	-14.6899	-4.71941
301	3	-18.4873	-13.9304	-4.71941
302	3	-17.7278	-13.9304	-4.71941
303	3	-16.9684	-13.9304	-4.71941
304	3	-16.2089	-13.9304	-4.71941
305	3	-15.4494	-13.9304	-4.71941
306	3	-14.6899	-13.9304	-4.71941
307	3	-13.9304	-13.9304	-4.71941
308	3	-13.1709	-13.9304	-4.71941
309	3	-12.4114	-13.9304	-4.71941
310	3	-11.6519	-13.9304	-4.71941
311	3	-10.8924	-13.9304	-4.71941
312	3	-10.1329	-13.9304	-4.71941
313	3	-9.37342	-13.9304	-4.71941
314	3	-8.61392	-13.9304	-4.71941
315	3	-7.85443	-13.9304	-4.71941
316	3	-7.09494	-13.9304	-4.71941
317	3	-6.33544	-13.9304	-4.71941
318	3	-5.57595	-13.9304	-4.71941
319	3	-4.81646	-13.9304	-4.71941
320	3	-4.05696	-13.9304	-4.71941
321	3	-3.29747	-13.9304	-4.71941
322	3	-2.53797	-13.9304	-4.71941
323	3	-1.77848	-13.9304	-4.71941
324	3	-1.01899	-13.9304	-4.71941
325	3	-0.259494	-13.9304	-4.71941
326	3	0.5	-13.9304	-4.71941
327	3	1.25949	-13.9304	-4.71941
328	3	2.01899	-13.9304	-4.71941
329	3	2.77848	-13.9304	-4.71941
330	3	3.53797	-13.9304	-4.71941
331	3	4.29747	-13.9304	-4.71941
332	3	5.05696	-13.9304	-4.71941
333	3	5.81646	-13.9304	-4.71941
334	3	6.57595	-13.9304	-4.71941
335	3	7.33544	-13.9304	-4.71941
336	3	8.09494	-13.9304	-4.71941
337	3	8.85443	-13.9304	-4.71941
338	3	9.61392	-13.9304	-4.71941
339	3	10.3734	-13.9304	-4.71941
340	3	11.1329	-13.9304	-4.71941
341	3	11.8924	-13.9304	-4.71941
342	3	12.6519	-13.9304	-4.71941
343	3	13.4114	-13.9304	-4.71941
344	3	14.1709	-13.9304	-4.71941
345	3	14.9304	-13.9304	-4.71941
346	3	15.6899	-13.9304	-4.71941
347	3	16.4494	-13.9304	-4.71941
348	3	17.2089	-13.9304	-4.71941
349	3	17.9684	-13.9304	-4.71941
350	3	18.7278	-13.9304	-4.71941
351	3	-18.4873	-13.1709	-4.71941
352	3	-17.7278	-13.1709	-4.71941
353	3	-16.9684	-13.1709	-4.71941
354	3	-16.2089	-13.1709	-4.71941
355	3	-15.4494	-13.1709	-4.71941
356	3	-14.6899	-13.1709	-4.71941
357	3	-13.9304	-13.1709	-4.71941
358	3	-13.1709	-13.1709	-4.71941
359	3	-12.4114	-13.1709	-4.71941
360	3	-11.6519	-13.1709	-4.71941
361	3	-10.8924	-13.1709	-4.71941
362	3	-10.1329	-13.1709	-4.71941
363	3	-9.37342	-13.1709	-4.71941
364	3	-8.61392	-13.1709	-4.71941
365	3	-7.85443	-13.1709	-4.71941
366	3	-7.09494	-13.1709	-4.71941
367	3	-6.33544	-13.1709	-4.71941
368	3	-5.57595	-13.1709	-4.71941
369	3	-4.81646	-13.1709	-4.71941
370	3	-4.05696	-13.1709	-4.71941
371	3	-3.29747	-13.1709	-4.71941
372	3	-2.53797	-13.1709	-4.71941
373	3	-1.77848	-13.1709	-4.71941
374	3	-1.01899	-13.1709	-4.71941
375	3	-0.259494	-13.1709	-4.71941
376	3	0.5	-13.1709	-4.71941
377	3	1.25949	-13.1709	-4.71941
378	3	2.01899	-13.1709	-4.71941
379	3	2.77848	-13.1709	-4.71941
380	3	3.53797	-13.1709	-4.71941
381	3	4.29747	-13.1709	-4.71941
382	3	5.05696	-13.1709	-4.71941
383	3	5.81646	-13.1709	-4.71941
384	3	6.57595	-13.1709	-4.71941
385	3	7.33544	-13.1709	-4.71941
386	3	8.09494	-13.1709	-4.71941
387	3	8.85443	-13.1709	-4.71941
388	3	9.61392	-13.1709	-4.71941
389	3	10.3734	-13.1709	-4.71941
390	3	11.1329	-13.1709	-4.71941
391	3	11.8924	-13.1709	-4.71941
392	3	12.6519	-13.1709	-4.71941
393	3	13.4114	-13.1709	-4.71941
394	3	14.1709	-13.1709	-4.71941
395	3	14.9304	-13.1709	-4.71941
396	3	15.6899	-13.1709	-4.71941
397	3	16.4494	-13.1709	-4.71941
398	3	17.2089	-13.1709	-4.71941
399	3	17.9684	-13.1709	-4.71941
400	3	18.7278	-13.1709	-4.71941
401	3	-18.4873	-12.4114	-4.71941
402	3	-17.7278	-12.4114	-4.71941
403	3	-16.9684	-12.4114	-4.71941
404	3	-16.2089	-12.4114	-4.71941
405	3	-15.4494	-12.4114	-4.71941
406	3	-14.6899	-12.4114	-4.71941
407	3	-13.9304	-12.4114	-4.71941
408	3	-13.1709	-12.4114	-4.71941
409	3	-12.4114	-12.4114	-4.71941
410	3	-11.6519	-12.4114	-4.71941
411	3	-10.8924	-12.4114	-4.71941
412	3	-10.1329	-12.4114	-4.71941
413	3	-9.37342	-12.4114	-4.71941
414	3	-8.61392	-12.4114	-4.71941
415	3	-7.85443	-12.4114	-4.71941
416	3	-7.09494	-12.4114	-4.71941
417	3	-6.33544	-12.4114	-4.71941
418	3	-5.57595	-12.4114	-4.71941
419	3	-4.81646	-12.4114	-4.71941
420	3	-4.05696	-12.4114	-4.71941
421	3	-3.29747	-12.4114	-4.71941
422	3	-2.53797	-12.4114	-4.71941
423	3	-1.77848	-12.4114	-4.71941
424	3	-1.01899	-12.4114	-4.71941
425	3	-0.259494	-12.4114	-4.71941
426	3	0.5	-12.4114	-4.71941
427	3	1.25949	-12.4114	-4.71941
428	3	2.01899	-12.4114	-4.71941
429	3	2.77848	-12.4114	-4.71941
430	3	3.53797	-12.4114	-4.71941
431	3	4.29747	-12.4114	-4.71941
432	3	5.05696	-12.4114	-4.71941
433	3	5.81646	-12.4114	-4.71941
434	3	6.57595	-12.4114	-4.71941
435	3	7.33544	-12.4114	-4.71941
436	3	8.09494	-12.4114	-4.71941
437	3	8.85443	-12.4114	-4.71941
438	3	9.61392	-12.4114	-4.71941
439	3	10.3734	-12.4114	-4.71941
440	3	11.1329	-12.4114	-4.71941
441	3	11.8924	-12.4114	-4.71941
442	3	12.6519	-12.4114	-4.71941
443	3	13.4114	-12.4114	-4.71941
444	3	14.1709	-12.4114	-4.71941
445	3	14.9304	-12.4114	-4.71941
446	3	15.6899	-12.4114	-4.71941
447	3	16.4494	-12.4114	-4.71941
448	3	17.2089	-12.4114	-4.71941
449	3	17.9684	-12.4114	-4.71941
450	3	18.7278	-12.4114	-4.71941
451	3	-18.4873	-11.6519	-4.71941
452	3	-17.7278	-11.6519	-4.71941
453	3	-16.9684	-11.6519	-4.71941
454	3	-16.2089	-11.6519	-4.71941
455	3	-15.4494	-11.6519	-4.71941
456	3	-14.6899	-11.6519	-4.71941
457	3	-13.9304	-11.6519	-4.71941
458	3	-13.1709	-11.6519	-4.71941
459	3	-12.4114	-11.6519	-4.71941
460	3	-11.6519	-11.6519	-4.71941
461	3	-10.8924	-11.6519	-4.71941
462	3	-10.1329	-11.6519	-4.71941
463	3	-9.37342	-11.6519	-4.71941
464	3	-8.61392	-11.6519	-4.71941
465	3	-7.85443	-11.6519	-4.71941
466	3	-7.09494	-11.6519	-4.71941
467	3	-6.33544	-11.6519	-4.71941
468	3	-5.57595	-11.6519	-4.71941
469	3	-4.81646	-11.6519	-4.71941
470	3	-4.05696	-11.6519	-4.71941
471	3	-3.29747	-11.6519	-4.71941
472	3	-2.53797	-11.6519	-4.71941
473	3	-1.77848	-11.6519	-4.71941
474	3	-1.01899	-11.6519	-4.71941
475	3	-0.259494	-11.6519	-4.71941
476	3	0.5	-11.6519	-4.71941
477	3	1.25949	-11.6519	-4.71941
478	3	2.01899	-11.6519	-4.71941
479	3	2.77848	-11.6519	-4.71941
480	3	3.53797	-11.6519	-4.71941
481	3	4.29747	-11.6519	-4.71941
482	3	5.05696	-11.6519	-4.71941
483	3	5.81646	-11.6519	-4.71941
484	3	6.57595	-11.6519	-4.71941
485	3	7.33544	-11.6519	-4.71941
486	3	8.09494	-11.6519	-4.71941
487	3	8.85443	-11.6519	-4.71941
488	3	9.61392	-11.6519	-4.71941
489	3	10.3734	-11.6519	-4.71941
490	3	11.1329	-11.6519	-4.71941
491	3	11.8924	-11.6519	-4.71941
492	3	12.6519	-11.6519	-4.71941
493	3	13.4114	-11.6519	-4.71941
494	3	14.1709	-11.6519	-4.71941
495	3	14.9304	-11.6519	-4.71941
496	3	15.6899	-11.6519	-4.71941
497	3	16.4494	-11.6519	-4.71941
498	3	17.2089	-11.6519	-4.71941
499	3	17.9684	-11.6519	-4.71941
500	3	18.7278	-11.6519	-4.71941
501	3	-18.4873	-10.8924	-4.71941
502	3	-17.7278	-10.8924	-4.71941
503	3	-16.9684	-10.8924	-4.71941
504	3	-16.2089	-10.8924	-4.71941
505	3	-15.4494	-10.8924	-4.71941
506	3	-14.6899	-10.8924	-4.71941
507	3	-13.9304	-10.8924	-4.71941
508	3	-13.1709	-10.8924	-4.71941
509	3	-12.4114	-10.8924	-4.71941
510	3	-11.6519	-10.8924	-4.71941
511	3	-10.8924	-10.8924	-4.71941
512	3	-10.1329	-10.8924	-4.71941
513	3	-9.37342	-10.8924	-4.71941
514	3	-8.61392	-10.8924	-4.71941
515	3	-7.85443	-10.8924	-4.71941
516	3	-7.09494	-10.8924	-4.71941
517	3	-6.33544	-10.8924	-4.71941
518	3	-5.57595	-10.8924	-4.71941
519	3	-4.81646	-10.8924	-4.71941
520	3	-4.05696	-10.8924	-4.71941
521	3	-3.29747	-10.8924	-4.71941
522	3	-2.53797	-10.8924	-4.71941
523	3	-1.77848	-10.8924	-4.71941
524	3	-1.01899	-10.8924	-4.71941
525	3	-0.259494	-10.8924	-4.71941
526	3	0.5	-10.8924	-4.71941
527	3	1.25949	-10.8924	-4.71941
528	3	2.01899	-10.8924	-4.71941
529	3	2.77848	-10.8924	-4.71941
530	3	3.53797	-10.8924	-4.71941
531	3	4.29747	-10.8924	-4.71941
532	3	5.05696	-10.8924	-4.71941
533	3	5.81646	-10.8924	-4.71941
534	3	6.57595	-10.8924	-4.71941
535	3	7.33544	-10.8924	-4.71941
536	3	8.09494	-10.8924	-4.71941
537	3	8.85443	-10.8924	-4.71941
538	3	9.61392	-10.8924	-4.71941
539	3	10.3734	-10.8924	-4.71941
540	3	11.1329	-10.8924	-4.71941
541	3	11.8924	-10.8924	-4.71941
542	3	12.6519	-10.8924	-4.71941
543	3	13.4114	-10.8924	-4.71941
544	3	14.1709	-10.8924	-4.71941
545	3	14.9304	-10.8924	-4.71941
546	3	15.6899	-10.8924	-4.71941
547	3	16.4494	-10.8924	-4.71941
548	3	17.2089	-10.8924	-4.71941
549	3	17.9684	-10.8924	-4.71941
550	3	18.7278	-10.8924	-4.71941
551	3	-18.4873	-10.1329	-4.71941
552	3	-17.7278	-10.1329	-4.71941
553	3	-16.9684	-10.1329	-4.71941
554	3	-16.2089	-10.1329	-4.71941
555	3	-15.4494	-10.1329	-4.71941
556	3	-14.6899	-10.1329	-4.71941
557	3	-13.9304	-10.1329	-4.71941
558	3	-13.1709	-10.1329	-4.71941
559	3	-12.4114	-10.1329	-4.71941
560	3	-11.6519	-10.1329	-4.71941
561	3	-10.8924	-10.1329	-4.71941
562	3	-10.1329	-10.1329	-4.71941
563	3	-9.37342	-10.1329	-4.71941
564	3	-8.61392	-10.1329	-4.71941
565	3	-7.85443	-10.1329	-4.71941
566	3	-7.09494	-10.1329	-4.71941
567	3	-6.33544	-10.1329	-4.71941
568	3	-5.57595	-10.1329	-4.71941
569	3	-4.81646	-10.1329	-4.71941
570	3	-4.05696	-10.1329	-4.71941
571	3	-3.29747	-10.1329	-4.71941
572	3	-2.53797	-10.1329	-4.71941
573	3	-1.77848	-10.1329	-4.71941
574	3	-1.01899	-10.1329	-4.71941
575	3	-0.259494	-10.1329	-4.71941
576	3	0.5	-10.1329	-4.71941
577	3	1.25949	-10.1329	-4.71941
578	3	2.01899	-10.1329	-4.71941
579	3	2.77848	-10.1329	-4.71941
580	3	3.53797	-10.1329	-4.71941
581	3	4.29747	-10.1329	-4.71941
582	3	5.05696	-10.1329	-4.71941
583	3	5.81646	-10.1329	-4.71941
584	3	6.57595	-10.1329	-4.71941
585	3	7.33544	-10.1329	-4.71941
586	3	8.09494	-10.1329	-4.71941
587	3	8.85443	-10.1329	-4.71941
588	3	9.61392	-10.1329	-4.71941
589	3	10.3734	-10.1329	-4.71941
590	3	11.1329	-10.1329	-4.71941
591	3	11.8924	-10.1329	-4.71941
592	3	12.6519	-10.1329	-4.71941
593	3	13.4114	-10.1329	-4.71941
594	3	14.1709	-10.1329	-4.71941
595	3	14.9304	-10.1329	-4.71941
596	3	15.6899	-10.1329	-4.71941
597	3	16.4494	-10.1329	-4.71941
598	3	17.2089	-10.1329	-4.71941
599	3	17.9684	-10.1329	-4.71941
600	3	18.7278	-10.1329	-4.71941
601	3	-18.4873	-9.37342	-4.71941
602	3	-17.7278	-9.37342	-4.71941
603	3	-16.9684	-9.37342	-4.71941
604	3	-16.2089	-9.37342	-4.71941
605	3	-15.4494	-9.37342	-4.71941
606	3	-14.6899	-9.37342	-4.71941
607	3	-13.9304	-9.37342	-4.71941
608	3	-13.1709	-9.37342	-4.71941
609	3	-12.4114	-9.37342	-4.71941
610	3	-11.6519	-9.37342	-4.71941
611	3	-10.8924	-9.37342	-4.71941
612	3	-10.1329	-9.37342	-4.71941
613	3	-9.37342	-9.37342	-4.71941
614	3	-8.61392	-9.37342	-4.71941
615	3	-7.85443	-9.37342	-4.71941
616	3	-7.09494	-9.37342	-4.71941
617	3	-6.33544	-9.37342	-4.71941
618	3	-5.57595	-9.37342	-4.71941
619	3	-4.81646	-9.37342	-4.71941
620	3	-4.05696	-9.37342	-4.71941
621	3	-3.29747	-9.37342	-4.71941
622	3	-2.53797	-9.37342	-4.71941
623	3	-1.77848	-9.37342	-4.71941
624	3	-1.01899	-9.37342	-4.71941
625	3	-0.259494	-9.37342	-4.71941
626	3	0.5	-9.37342	-4.71941
627	3	1.25949	-9.37342	-4.71941
628	3	2.01899	-9.37342	-4.71941
629	3	2.77848	-9.37342	-4.71941
630	3	3.53797	-9.37342	-4.71941
631	3	4.29747	-9.37342	-4.71941
632	3	5.05696	-9.37342	-4.71941
633	3	5.81646	-9.37342	-4.71941
634	3	6.57595	-9.37342	-4.71941
635	3	7.33544	-9.37342	-4.71941
636	3	8.09494	-9.37342	-4.71941
637	3	8.85443	-9.37342	-4.71941
638	3	9.61392	-9.37342	-4.71941
639	3	10.3734	-9.37342	-4.71941
640	3	11.1329	-9.37342	-4.71941
641	3	11.8924	-9.37342	-4.71941
642	3	12.6519	-9.37342	-4.71941
643	3	13.4114	-9.37342	-4.71941
644	3	14.1709	-9.37342	-4.71941
645	3	14.9304	-9.37342	-4.71941
646	3	15.6899	-9.37342	-4.71941
647	3	16.4494	-9.37342	-4.71941
648	3	17.2089	-9.37342	-4.71941
649	3	17.9684	-9.37342	-4.71941
650	3	18.7278	-9.37342	-4.71941
651	3	-18.4873	-8.61392	-4.71941
652	3	-17.7278	-8.61392	-4.71941
653	3	-16.9684	-8.61392	-4.71941
654	3	-16.2089	-8.61392	-4.71941
655	3	-15.4494	-8.61392	-4.71941
656	3	-14.6899	-8.61392	-4.71941
657	3	-13.9304	-8.61392	-4.71941
658	3	-13.1709	-8.61392	-4.71941
659	3	-12.4114	-8.61392	-4.71941
660	3	-11.6519	-8.61392	-4.71941
661	3	-10.8924	-8.61392	-4.71941
662	3	-10.1329	-8.61392	-4.71941
663	3	-9.37342	-8.61392	-4.71941
664	3	-8.61392	-8.61392	-4.71941
665	3	-7.85443	-8.61392	-4.71941
666	3	-7.09494	-8.61392	-4.71941
667	3	-6.33544	-8.61392	-4.71941
668	3	-5.57595	-8.61392	-4.71941
669	3	-4.81646	-8.61392	-4.71941
670	3	-4.05696	-8.61392	-4.71941
671	3	-3.29747	-8.61392	-4.71941
672	3	-2.53797	-8.61392	-4.71941
673	3	-1.77848	-8.61392	-4.71941
674	3	-1.01899	-8.61392	-4.71941
675	3	-0.259494	-8.61392	-4.71941
676	3	0.5	-8.61392	-4.71941
677	3	1.25949	-8.61392	-4.71941
678	3	2.01899	-8.61392	-4.71941
679	3	2.77848	-8.61392	-4.71941
680	3	3.53797	-8.61392	-4.71941
681	3	4.29747	-8.61392	-4.71941
682	3	5.05696	-8.61392	-4.71941
683	3	5.81646	-8.61392	-4.71941
684	3	6.57595	-8.61392	-4.71941
685	3	7.33544	-8.61392	-4.71941
686	3	8.09494	-8.61392	-4.71941
687	3	8.85443	-8.61392	-4.71941
688	3	9.61392	-8.61392	-4.71941
689	3	10.3734	-8.61392	-4.71941
690	3	11.1329	-8.61392	-4.71941
691	3	11.8924	-8.61392	-4.71941
692	3	12.6519	-8.61392	-4.71941
693	3	13.4114	-8.61392	-4.71941
694	3	14.1709	-8.61392	-4.71941
695	3	14.9304	-8.61392	-4.71941
696	3	15.6899	-8.61392	-4.71941
697	3	16.4494	-8.61392	-4.71941
698	3	17.2089	-8.61392	-4.71941
699	3	17.9684	-8.61392	-4.71941
700	3	18.7278	-8.61392	-4.71941
701	3	-18.4873	-7.85443	-4.71941
702	3	-17.7278	-7.85443	-4.71941
703	3	-16.9684	-7.85443	-4.71941
704	3	-16.2089	-7.85443	-4.71941
705	3	-15.4494	-7.85443	-4.71941
706	3	-14.6899	-7.85443	-4.71941
707	3	-13.9304	-7.85443	-4.71941
708	3	-13.1709	-7.85443	-4.71941
709	3	-12.4114	-7.85443	-4.71941
710	3	-11.6519	-7.85443	-4.71941
711	3	-10.8924	-7.85443	-4.71941
712	3	-10.1329	-7.85443	-4.71941
713	3	-9.37342	-7.85443	-4.71941
714	3	-8.61392	-7.85443	-4.71941
715	3	-7.85443	-7.85443	-4.71941
716	3	-7.09494	-7.85443	-4.71941
717	3	-6.33544	-7.85443	-4.71941
718	3	-5.57595	-7.85443	-4.71941
719	3	-4.81646	-7.85443	-4.71941
720	3	-4.05696	-7.85443	-4.71941
721	3	-3.29747	-7.85443	-4.71941
722	3	-2.53797	-7.85443	-4.71941
723	3	-1.77848	-7.85443	-4.71941
724	3	-1.01899	-7.85443	-4.71941
725	3	-0.259494	-7.85443	-4.71941
726	3	0.5	-7.85443	-4.71941
727	3	1.25949	-7.85443	-4.71941
728	3	2.01899	-7.85443	-4.71941
729	3	2.77848	-7.85443	-4.71941
730	3	3.53797	-7.85443	-4.71941
731	3	4.29747	-7.85443	-4.71941
732	3	5.05696	-7.85443	-4.71941
733	3	5.81646	-7.85443	-4.71941
734	3	6.57595	-7.85443	-4.71941
735	3	7.33544	-7.85443	-4.71941
736	3	8.09494	-7.85443	-4.71941
737	3	8.85443	-7.85443	-4.71941
738	3	9.61392	-7.85443	-4.71941
739	3	10.3734	-7.85443	-4.71941
740	3	11.1329	-7.85443	-4.71941
741	3	11.8924	-7.85443	-4.71941
742	3	12.6519	-7.85443	-4.71941
743	3	13.4114	-7.85443	-4.71941
744	3	14.1709	-7.85443	-4.71941
745	3	14.9304	-7.85443	-4.71941
746	3	15.6899	-7.85443	-4.71941
747	3	16.4494	-7.85443	-4.71941
748	3	17.2089	-7.85443	-4.71941
749	3	17.9684	-7.85443	-4.71941
750	3	18.7278	-7.85443	-4.71941
751	3	-18.4873	-7.09494	-4.71941
752	3	-17.7278	-7.09494	-4.71941
753	3	-16.9684	-7.09494	-4.71941
754	3	-16.2089	-7.09494	-4.71941
755	3	-15.4494	-7.09494	-4.71941
756	3	-14.6899	-7.09494	-4.71941
757	3	-13.9304	-7.09494	-4.71941
758	3	-13.1709	-7.09494	-4.71941
759	3	-12.4114	-7.09494	-4.71941
760	3	-11.6519	-7.09494	-4.71941
761	3	-10.8924	-7.09494	-4.71941
762	3	-10.1329	-7.09494	-4.71941
763	3	-9.37342	-7.09494	-4.71941
764	3	-8.61392	-7.09494	-4.71941
765	3	-7.85443	-7.09494	-4.71941
766	3	-7.09494	-7.09494	-4.71941
767	3	-6.33544	-7.09494	-4.71941
768	3	-5.57595	-7.09494	-4.71941
769	3	-4.81646	-7.09494	-4.71941
770	3	-4.05696	-7.09494	-4.71941
771	3	-3.29747	-7.09494	-4.71941
772	3	-2.53797	-7.09494	-4.71941
773	3	-1.77848	-7.09494	-4.71941
774	3	-1.01899	-7.09494	-4.71941
775	3	-0.259494	-7.09494	-4.71941
776	3	0.5	-7.09494	-4.71941
777	3	1.25949	-7.09494	-4.71941
778	3	2.01899	-7.09494	-4.71941
779	3	2.77848	-7.09494	-4.71941
780	3	3.53797	-7.09494	-4.71941
781	3	4.29747	-7.09494	-4.71941
782	3	5.05696	-7.09494	-4.71941
783	3	5.81646	-7.09494	-4.71941
784	3	6.57595	-7.09494	-4.71941
785	3	7.33544	-7.09494	-4.71941
786	3	8.09494	-7.09494	-4.71941
787	3	8.85443	-7.09494	-4.71941
788	3	9.61392	-7.09494	-4.71941
789	3	10.3734	-7.09494	-4.71941
790	3	11.1329	-7.09494	-4.71941
791	3	11.8924	-7.09494	-4.71941
792	3	12.6519	-7.09494	-4.71941
793	3	13.4114	-7.09494	-4.71941
794	3	14.1709	-7.09494	-4.71941
795	3	14.9304	-7.09494	-4.71941
796	3	15.6899	-7.09494	-4.71941
797	3	16.4494	-7.09494	-4.71941
798	3	17.2089	-7.09494	-4.71941
799	3	17.9684	-7.09494	-4.71941
800	3	18.7278	-7.09494	-4.71941
801	3	-18.4873	-6.33544	-4.71941
802	3	-17.7278	-6.33544	-4.71941
803	3	-16.9684	-6.33544	-4.71941
804	3	-16.2089	-6.33544	-4.71941
805	3	-15.4494	-6.33544	-4.71941
806	3	-14.6899	-6.33544	-4.71941
807	3	-13.9304	-6.33544	-4.71941
808	3	-13.1709	-6.33544	-4.71941
809	3	-12.4114	-6.33544	-4.71941
810	3	-11.6519	-6.33544	-4.71941
811	3	-10.8924	-6.33544	-4.71941
812	3	-10.1329	-6.33544	-4.71941
813	3	-9.37342	-6.33544	-4.71941
814	3	-8.61392	-6.33544	-4.71941
815	3	-7.85443	-6.33544	-4.71941
816	3	-7.09494	-6.33544	-4.71941
817	3	-6.33544	-6.33544	-4.71941
818	3	-5.57595	-6.33544	-4.71941
819	3	-4.81646	-6.33544	-4.71941
820	3	-4.05696	-6.33544	-4.71941
821	3	-3.29747	-6.33544	-4.71941
822	3	-2.53797	-6.33544	-4.71941
823	3	-1.77848	-6.33544	-4.71941
824	3	-1.01899	-6.33544	-4.71941
825	3	-0.259494	-6.33544	-4.71941
826	3	0.5	-6.33544	-4.71941
827	3	1.25949	-6.33544	-4.71941
828	3	2.01899	-6.33544	-4.71941
829	3	2.77848	-6.33544	-4.71941
830	3	3.53797	-6.33544	-4.71941
831	3	4.29747	-6.33544	-4.71941
832	3	5.05696	-6.33544	-4.71941
833	3	5.81646	-6.33544	-4.71941
834	3	6.57595	-6.33544	-4.71941
835	3	7.33544	-6.33544	-4.71941
836	3	8.09494	-6.33544	-4.71941
837	3	8.85443	-6.33544	-4.71941
838	3	9.61392	-6.33544	-4.71941
839	3	10.3734	-6.33544	-4.71941
840	3	11.1329	-6.33544	-4.71941
841	3	11.8924	-6.33544	-4.71941
842	3	12.6519	-6.33544	-4.71941
843	3	13.4114	-6.33544	-4.71941
844	3	14.1709	-6.33544	-4.71941
845	3	14.9304	-6.33544	-4.71941
846	3	15.6899	-6.33544	-4.71941
847	3	16.4494	-6.33544	-4.71941
848	3	17.2089	-6.33544	-4.71941
849	3	17.9684	-6.33544	-4.71941
850	3	18.7278	-6.33544	-4.71941
851	3	-18.4873	-5.57595	-4.71941
852	3	-17.7278	-5.57595	-4.71941
853	3	-16.9684	-5.57595	-4.71941
854	3	-16.2089	-5.57595	-4.71941
855	3	-15.4494	-5.57595	-4.71941
856	3	-14.6899	-5.57595	-4.71941
857	3	-13.9304	-5.57595	-4.71941
858	3	-13.1709	-5.57595	-4.71941
859	3	-12.4114	-5.57595	-4.71941
860	3	-11.6519	-5.57595	-4.71941
861	3	-10.8924	-5.57595	-4.71941
862	3	-10.1329	-5.57595	-4.71941
863	3	-9.37342	-5.57595	-4.71941
864	3	-8.61392	-5.57595	-4.71941
865	3	-7.85443	-5.57595	-4.71941
866	3	-7.09494	-5.57595	-4.71941
867	3	-6.33544	-5.57595	-4.71941
868	3	-5.57595	-5.57595	-4.71941
869	3	-4.81646	-5.57595	-4.71941
870	3	-4.05696	-5.57595	-4.71941
871	3	-3.29747	-5.57595	-4.71941
872	3	-2.53797	-5.57595	-4.71941
873	3	-1.77848	-5.57595	-4.71941
874	3	-1.01899	-5.57595	-4.71941
875	3	-0.259494	-5.57595	-4.71941
876	3	0.5	-5.57595	-4.71941
877	3	1.25949	-5.57595	-4.71941
878	3	2.01899	-5.57595	-4.71941
879	3	2.77848	-5.57595	-4.71941
880	3	3.53797	-5.57595	-4.71941
881	3	4.29747	-5.57595	-4.71941
882	3	5.05696	-5.57595	-4.71941
883	3	5.81646	-5.57595	-4.71941
884	3	6.57595	-5.57595	-4.71941
885	3	7.33544	-5.57595	-4.71941
886	3	8.09494	-5.57595	-4.71941
887	3	8.85443	-5.57595	-4.71941
888	3	9.61392	-5.57595	-4.71941
889	3	10.3734	-5.57595	-4.71941
890	3	11.1329	-5.57595	-4.71941
891	3	11.8924	-5.57595	-4.71941
892	3	12.6519	-5.57595	-4.71941
893	3	13.4114	-5.57595	-4.71941
894	3	14.1709	-5.57595	-4.71941
895	3	14.9304	-5.57595	-4.71941