ITEM: TIMESTEP
0
ITEM: NUMBER OF ATOMS
2500
ITEM: BOX BOUNDS
-18.9873	18.9873
-18.9873	18.9873
-4.21941	4.21941
ITEM: ATOMS index type x y z
1	2	-18.4873	-18.4873	4.71941
2	2	-17.7278	-18.4873	4.71941
3	2	-16.9684	-18.4873	4.71941
4	2	-16.2089	-18.4873	4.71941
5	2	-15.4494	-18.4873	4.71941
6	2	-14.6899	-18.4873	4.71941
7	2	-13.9304	-18.4873	4.71941
8	2	-13.1709	-18.4873	4.71941
9	2	-12.4114	-18.4873	4.71941
10	2	-11.6519	-18.4873	4.71941
11	2	-10.8924	-18.4873	4.71941
12	2	-10.1329	-18.4873	4.71941
13	2	-9.37342	-18.4873	4.71941
14	2	-8.61392	-18.4873	4.71941
15	2	-7.85443	-18.4873	4.71941
16	2	-7.09494	-18.4873	4.71941
17	2	-6.33544	-18.4873	4.71941
18	2	-5.57595	-18.4873	4.71941
19	2	-4.81646	-18.4873	4.71941
20	2	-4.05696	-18.4873	4.71941
21	2	-3.29747	-18.4873	4.71941
22	2	-2.53797	-18.4873	4.71941
23	2	-1.77848	-18.4873	4.71941
24	2	-1.01899	-18.4873	4.71941
25	2	-0.259494	-18.4873	4.71941
26	2	0.5	-18.4873	4.71941
27	2	1.25949	-18.4873	4.71941
28	2	2.01899	-18.4873	4.71941
29	2	2.77848	-18.4873	4.71941
30	2	3.53797	-18.4873	4.71941
31	2	4.29747	-18.4873	4.71941
32	2	5.05696	-18.4873	4.71941
33	2	5.81646	-18.4873	4.71941
34	2	6.57595	-18.4873	4.71941
35	2	7.33544	-18.4873	4.71941
36	2	8.09494	-18.4873	4.71941
37	2	8.85443	-18.4873	4.71941
38	2	9.61392	-18.4873	4.71941
39	2	10.3734	-18.4873	4.71941
40	2	11.1329	-18.4873	4.71941
41	2	11.8924	-18.4873	4.71941
42	2	12.6519	-18.4873	4.71941
43	2	13.4114	-18.4873	4.71941
44	2	14.1709	-18.4873	4.71941
45	2	14.9304	-18.4873	4.71941
46	2	15.6899	-18.4873	4.71941
47	2	16.4494	-18.4873	4.71941
48	2	17.2089	-18.4873	4.71941
49	2	17.9684	-18.4873	4.71941
50	2	18.7278	-18.4873	4.71941
51	2	-18.4873	-17.7278	4.71941
52	2	-17.7278	-17.7278	4.71941
53	2	-16.9684	-17.7278	4.71941
54	2	-16.2089	-17.7278	4.71941
55	2	-15.4494	-17.7278	4.71941
56	2	-14.6899	-17.7278	4.71941
57	2	-13.9304	-17.7278	4.71941
58	2	-13.1709	-17.7278	4.71941
59	2	-12.4114	-17.7278	4.71941
60	2	-11.6519	-17.7278	4.71941
61	2	-10.8924	-17.7278	4.71941
62	2	-10.1329	-17.7278	4.71941
63	2	-9.37342	-17.7278	4.71941
64	2	-8.61392	-17.7278	4.71941
65	2	-7.85443	-17.7278	4.71941
66	2	-7.09494	-17.7278	4.71941
67	2	-6.33544	-17.7278	4.71941
68	2	-5.57595	-17.7278	4.71941
69	2	-4.81646	-17.7278	4.71941
70	2	-4.05696	-17.7278	4.71941
71	2	-3.29747	-17.7278	4.71941
72	2	-2.53797	-17.7278	4.71941
73	2	-1.77848	-17.7278	4.71941
74	2	-1.01899	-17.7278	4.71941
75	2	-0.259494	-17.7278	4.71941
76	2	0.5	-17.7278	4.71941
77	2	1.25949	-17.7278	4.71941
78	2	2.01899	-17.7278	4.71941
79	2	2.77848	-17.7278	4.71941
80	2	3.53797	-17.7278	4.71941
81	2	4.29747	-17.7278	4.71941
82	2	5.05696	-17.7278	4.71941
83	2	5.81646	-17.7278	4.71941
84	2	6.57595	-17.7278	4.71941
85	2	7.33544	-17.7278	4.71941
86	2	8.09494	-17.7278	4.71941
87	2	8.85443	-17.7278	4.71941
88	2	9.61392	-17.7278	4.71941
89	2	10.3734	-17.7278	4.71941
90	2	11.1329	-17.7278	4.71941
91	2	11.8924	-17.7278	4.71941
92	2	12.6519	-17.7278	4.71941
93	2	13.4114	-17.7278	4.71941
94	2	14.1709	-17.7278	4.71941
95	2	14.9304	-17.7278	4.71941
96	2	15.6899	-17.7278	4.71941
97	2	16.4494	-17.7278	4.71941
98	2	17.2089	-17.7278	4.71941
99	2	17.9684	-17.7278	4.71941
100	2	18.7278	-17.7278	4.71941
101	2	-18.4873	-16.9684	4.71941
102	2	-17.7278	-16.9684	4.71941
103	2	-16.9684	-16.9684	4.71941
104	2	-16.2089	-16.9684	4.71941
105	2	-15.4494	-16.9684	4.71941
106	2	-14.6899	-16.9684	4.71941
107	2	-13.9304	-16.9684	4.71941
108	2	-13.1709	-16.9684	4.71941
109	2	-12.4114	-16.9684	4.71941
110	2	-11.6519	-16.9684	4.71941
111	2	-10.8924	-16.9684	4.71941
112	2	-10.1329	-16.9684	4.71941
113	2	-9.37342	-16.9684	4.71941
114	2	-8.61392	-16.9684	4.71941
115	2	-7.85443	-16.9684	4.71941
116	2	-7.09494	-16.9684	4.71941
117	2	-6.33544	-16.9684	4.71941
118	2	-5.57595	-16.9684	4.71941
119	2	-4.81646	-16.9684	4.71941
120	2	-4.05696	-16.9684	4.71941
121	2	-3.29747	-16.9684	4.71941
122	2	-2.53797	-16.9684	4.71941
123	2	-1.77848	-16.9684	4.71941
124	2	-1.01899	-16.9684	4.71941
125	2	-0.259494	-16.9684	4.71941
126	2	0.5	-16.9684	4.71941
127	2	1.25949	-16.9684	4.71941
128	2	2.01899	-16.9684	4.71941
129	2	2.77848	-16.9684	4.71941
130	2	3.53797	-16.9684	4.71941
131	2	4.29747	-16.9684	4.71941
132	2	5.05696	-16.9684	4.71941
133	2	5.81646	-16.9684	4.71941
134	2	6.57595	-16.9684	4.71941
135	2	7.33544	-16.9684	4.71941
136	2	8.09494	-16.9684	4.71941
137	2	8.85443	-16.9684	4.71941
138	2	9.61392	-16.9684	4.71941
139	2	10.3734	-16.9684	4.71941
140	2	11.1329	-16.9684	4.71941
141	2	11.8924	-16.9684	4.71941
142	2	12.6519	-16.9684	4.71941
143	2	13.4114	-16.9684	4.71941
144	2	14.1709	-16.9684	4.71941
145	2	14.9304	-16.9684	4.71941
146	2	15.6899	-16.9684	4.71941
147	2	16.4494	-16.9684	4.71941
148	2	17.2089	-16.9684	4.71941
149	2	17.9684	-16.9684	4.71941
150	2	18.7278	-16.9684	4.71941
151	2	-18.4873	-16.2089	4.71941
152	2	-17.7278	-16.2089	4.71941
153	2	-16.9684	-16.2089	4.71941
154	2	-16.2089	-16.2089	4.71941
155	2	-15.4494	-16.2089	4.71941
156	2	-14.6899	-16.2089	4.71941
157	2	-13.9304	-16.2089	4.71941
158	2	-13.1709	-16.2089	4.71941
159	2	-12.4114	-16.2089	4.71941
160	2	-11.6519	-16.2089	4.71941
161	2	-10.8924	-16.2089	4.71941
162	2	-10.1329	-16.2089	4.71941
163	2	-9.37342	-16.2089	4.71941
164	2	-8.61392	-16.2089	4.71941
165	2	-7.85443	-16.2089	4.71941
166	2	-7.09494	-16.2089	4.71941
167	2	-6.33544	-16.2089	4.71941
168	2	-5.57595	-16.2089	4.71941
169	2	-4.81646	-16.2089	4.71941
170	2	-4.05696	-16.2089	4.71941
171	2	-3.29747	-16.2089	4.71941
172	2	-2.53797	-16.2089	4.71941
173	2	-1.77848	-16.2089	4.71941
174	2	-1.01899	-16.2089	4.71941
175	2	-0.259494	-16.2089	4.71941
176	2	0.5	-16.2089	4.71941
177	2	1.25949	-16.2089	4.71941
178	2	2.01899	-16.2089	4.71941
179	2	2.77848	-16.2089	4.71941
180	2	3.53797	-16.2089	4.71941
181	2	4.29747	-16.2089	4.71941
182	2	5.05696	-16.2089	4.71941
183	2	5.81646	-16.2089	4.71941
184	2	6.57595	-16.2089	4.71941
185	2	7.33544	-16.2089	4.71941
186	2	8.09494	-16.2089	4.71941
187	2	8.85443	-16.2089	4.71941
188	2	9.61392	-16.2089	4.71941
189	2	10.3734	-16.2089	4.71941
190	2	11.1329	-16.2089	4.71941
191	2	11.8924	-16.2089	4.71941
192	2	12.6519	-16.2089	4.71941
193	2	13.4114	-16.2089	4.71941
194	2	14.1709	-16.2089	4.71941
195	2	14.9304	-16.2089	4.71941
196	2	15.6899	-16.2089	4.71941
197	2	16.4494	-16.2089	4.71941
198	2	17.2089	-16.2089	4.71941
199	2	17.9684	-16.2089	4.71941
200	2	18.7278	-16.2089	4.71941
201	2	-18.4873	-15.4494	4.71941
202	2	-17.7278	-15.4494	4.71941
203	2	-16.9684	-15.4494	4.71941
204	2	-16.2089	-15.4494	4.71941
205	2	-15.4494	-15.4494	4.71941
206	2	-14.6899	-15.4494	4.71941
207	2	-13.9304	-15.4494	4.71941
208	2	-13.1709	-15.4494	4.71941
209	2	-12.4114	-15.4494	4.71941
210	2	-11.6519	-15.4494	4.71941
211	2	-10.8924	-15.4494	4.71941
212	2	-10.1329	-15.4494	4.71941
213	2	-9.37342	-15.4494	4.71941
214	2	-8.61392	-15.4494	4.71941
215	2	-7.85443	-15.4494	4.71941
216	2	-7.09494	-15.4494	4.71941
217	2	-6.33544	-15.4494	4.71941
218	2	-5.57595	-15.4494	4.71941
219	2	-4.81646	-15.4494	4.71941
220	2	-4.05696	-15.4494	4.71941
221	2	-3.29747	-15.4494	4.71941
222	2	-2.53797	-15.4494	4.71941
223	2	-1.77848	-15.4494	4.71941
224	2	-1.01899	-15.4494	4.71941
225	2	-0.259494	-15.4494	4.71941
226	2	0.5	-15.4494	4.71941
227	2	1.25949	-15.4494	4.71941
228	2	2.01899	-15.4494	4.71941
229	2	2.77848	-15.4494	4.71941
230	2	3.53797	-15.4494	4.71941
231	2	4.29747	-15.4494	4.71941
232	2	5.05696	-15.4494	4.71941
233	2	5.81646	-15.4494	4.71941
234	2	6.57595	-15.4494	4.71941
235	2	7.33544	-15.4494	4.71941
236	2	8.09494	-15.4494	4.71941
237	2	8.85443	-15.4494	4.71941
238	2	9.61392	-15.4494	4.71941
239	2	10.3734	-15.4494	4.71941
240	2	11.1329	-15.4494	4.71941
241	2	11.8924	-15.4494	4.71941
242	2	12.6519	-15.4494	4.71941
243	2	13.4114	-15.4494	4.71941
244	2	14.1709	-15.4494	4.71941
245	2	14.9304	-15.4494	4.71941
246	2	15.6899	-15.4494	4.71941
247	2	16.4494	-15.4494	4.71941
248	2	17.2089	-15.4494	4.71941
249	2	17.9684	-15.4494	4.71941
250	2	18.7278	-15.4494	4.71941
251	2	-18.4873	-14.6899	4.71941
252	2	-17.7278	-14.6899	4.71941
253	2	-16.9684	-14.6899	4.71941
254	2	-16.2089	-14.6899	4.71941
255	2	-15.4494	-14.6899	4.71941
256	2	-14.6899	-14.6899	4.71941
257	2	-13.9304	-14.6899	4.71941
258	2	-13.1709	-14.6899	4.71941
259	2	-12.4114	-14.6899	4.71941
260	2	-11.6519	-14.6899	4.71941
261	2	-10.8924	-14.6899	4.71941
262	2	-10.1329	-14.6899	4.71941
263	2	-9.37342	-14.6899	4.71941
264	2	-8.61392	-14.6899	4.71941
265	2	-7.85443	-14.6899	4.71941
266	2	-7.09494	-14.6899	4.71941
267	2	-6.33544	-14.6899	4.71941
268	2	-5.57595	-14.6899	4.71941
269	2	-4.81646	-14.6899	4.71941
270	2	-4.05696	-14.6899	4.71941
271	2	-3.29747	-14.6899	4.71941
272	2	-2.53797	-14.6899	4.71941
273	2	-1.77848	-14.6899	4.71941
274	2	-1.01899	-14.6899	4.71941
275	2	-0.259494	-14.6899	4.71941
276	2	0.5	-14.6899	4.71941
277	2	1.25949	-14.6899	4.71941
278	2	2.01899	-14.6899	4.71941
279	2	2.77848	-14.6899	4.71941
280	2	3.53797	-14.6899	4.71941
281	2	4.29747	-14.6899	4.71941
282	2	5.05696	-14.6899	4.71941
283	2	5.81646	-14.6899	4.71941
284	2	6.57595	-14.6899	4.71941
285	2	7.33544	-14.6899	4.71941
286	2	8.09494	-14.6899	4.71941
287	2	8.85443	-14.6899	4.71941
288	2	9.61392	-14.6899	4.71941
289	2	10.3734	-14.6899	4.71941
290	2	11.1329	-14.6899	4.71941
291	2	11.8924	-14.6899	4.71941
292	2	12.6519	-14.6899	4.71941
293	2	13.4114	-14.6899	4.71941
294	2	14.1709	-14.6899	4.71941
295	2	14.9304	-14.6899	4.71941
296	2	15.6899	-14.6899	4.71941
297	2	16.4494	-14.6899	4.71941
298	2	17.2089	-14.6899	4.71941
299	2	17.9684	-14.6899	4.71941
300	2	18.7278	-14.6899	4.71941
301	2	-18.4873	-13.9304	4.71941
302	2	-17.7278	-13.9304	4.71941
303	2	-16.9684	-13.9304	4.71941
304	2	-16.2089	-13.9304	4.71941
305	2	-15.4494	-13.9304	4.71941
306	2	-14.6899	-13.9304	4.71941
307	2	-13.9304	-13.9304	4.71941
308	2	-13.1709	-13.9304	4.71941
309	2	-12.4114	-13.9304	4.71941
310	2	-11.6519	-13.9304	4.71941
311	2	-10.8924	-13.9304	4.71941
312	2	-10.1329	-13.9304	4.71941
313	2	-9.37342	-13.9304	4.71941
314	2	-8.61392	-13.9304	4.71941
315	2	-7.85443	-13.9304	4.71941
316	2	-7.09494	-13.9304	4.71941
317	2	-6.33544	-13.9304	4.71941
318	2	-5.57595	-13.9304	4.71941
319	2	-4.81646	-13.9304	4.71941
320	2	-4.05696	-13.9304	4.71941
321	2	-3.29747	-13.9304	4.71941
322	2	-2.53797	-13.9304	4.71941
323	2	-1.77848	-13.9304	4.71941
324	2	-1.01899	-13.9304	4.71941
325	2	-0.259494	-13.9304	4.71941
326	2	0.5	-13.9304	4.71941
327	2	1.25949	-13.9304	4.71941
328	2	2.01899	-13.9304	4.71941
329	2	2.77848	-13.9304	4.71941
330	2	3.53797	-13.9304	4.71941
331	2	4.29747	-13.9304	4.71941
332	2	5.05696	-13.9304	4.71941
333	2	5.81646	-13.9304	4.71941
334	2	6.57595	-13.9304	4.71941
335	2	7.33544	-13.9304	4.71941
336	2	8.09494	-13.9304	4.71941
337	2	8.85443	-13.9304	4.71941
338	2	9.61392	-13.9304	4.71941
339	2	10.3734	-13.9304	4.71941
340	2	11.1329	-13.9304	4.71941
341	2	11.8924	-13.9304	4.71941
342	2	12.6519	-13.9304	4.71941
343	2	13.4114	-13.9304	4.71941
344	2	14.1709	-13.9304	4.71941
345	2	14.9304	-13.9304	4.71941
346	2	15.6899	-13.9304	4.71941
347	2	16.4494	-13.9304	4.71941
348	2	17.2089	-13.9304	4.71941
349	2	17.9684	-13.9304	4.71941
350	2	18.7278	-13.9304	4.71941
351	2	-18.4873	-13.1709	4.71941
352	2	-17.7278	-13.1709	4.71941
353	2	-16.9684	-13.1709	4.71941
354	2	-16.2089	-13.1709	4.71941
355	2	-15.4494	-13.1709	4.71941
356	2	-14.6899	-13.1709	4.71941
357	2	-13.9304	-13.1709	4.71941
358	2	-13.1709	-13.1709	4.71941
359	2	-12.4114	-13.1709	4.71941
360	2	-11.6519	-13.1709	4.71941
361	2	-10.8924	-13.1709	4.71941
362	2	-10.1329	-13.1709	4.71941
363	2	-9.37342	-13.1709	4.71941
364	2	-8.61392	-13.1709	4.71941
365	2	-7.85443	-13.1709	4.71941
366	2	-7.09494	-13.1709	4.71941
367	2	-6.33544	-13.1709	4.71941
368	2	-5.57595	-13.1709	4.71941
369	2	-4.81646	-13.1709	4.71941
370	2	-4.05696	-13.1709	4.71941
371	2	-3.29747	-13.1709	4.71941
372	2	-2.53797	-13.1709	4.71941
373	2	-1.77848	-13.1709	4.71941
374	2	-1.01899	-13.1709	4.71941
375	2	-0.259494	-13.1709	4.71941
376	2	0.5	-13.1709	4.71941
377	2	1.25949	-13.1709	4.71941
378	2	2.01899	-13.1709	4.71941
379	2	2.77848	-13.1709	4.71941
380	2	3.53797	-13.1709	4.71941
381	2	4.29747	-13.1709	4.71941
382	2	5.05696	-13.1709	4.71941
383	2	5.81646	-13.1709	4.71941
384	2	6.57595	-13.1709	4.71941
385	2	7.33544	-13.1709	4.71941
386	2	8.09494	-13.1709	4.71941
387	2	8.85443	-13.1709	4.71941
388	2	9.61392	-13.1709	4.71941
389	2	10.3734	-13.1709	4.71941
390	2	11.1329	-13.1709	4.71941
391	2	11.8924	-13.1709	4.71941
392	2	12.6519	-13.1709	4.71941
393	2	13.4114	-13.1709	4.71941
394	2	14.1709	-13.1709	4.71941
395	2	14.9304	-13.1709	4.71941
396	2	15.6899	-13.1709	4.71941
397	2	16.4494	-13.1709	4.71941
398	2	17.2089	-13.1709	4.71941
399	2	17.9684	-13.1709	4.71941
400	2	18.7278	-13.1709	4.71941
401	2	-18.4873	-12.4114	4.71941
402	2	-17.7278	-12.4114	4.71941
403	2	-16.9684	-12.4114	4.71941
404	2	-16.2089	-12.4114	4.71941
405	2	-15.4494	-12.4114	4.71941
406	2	-14.6899	-12.4114	4.71941
407	2	-13.9304	-12.4114	4.71941
408	2	-13.1709	-12.4114	4.71941
409	2	-12.4114	-12.4114	4.71941
410	2	-11.6519	-12.4114	4.71941
411	2	-10.8924	-12.4114	4.71941
412	2	-10.1329	-12.4114	4.71941
413	2	-9.37342	-12.4114	4.71941
414	2	-8.61392	-12.4114	4.71941
415	2	-7.85443	-12.4114	4.71941
416	2	-7.09494	-12.4114	4.71941
417	2	-6.33544	-12.4114	4.71941
418	2	-5.57595	-12.4114	4.71941
419	2	-4.81646	-12.4114	4.71941
420	2	-4.05696	-12.4114	4.71941
421	2	-3.29747	-12.4114	4.71941
422	2	-2.53797	-12.4114	4.71941
423	2	-1.77848	-12.4114	4.71941
424	2	-1.01899	-12.4114	4.71941
425	2	-0.259494	-12.4114	4.71941
426	2	0.5	-12.4114	4.71941
427	2	1.25949	-12.4114	4.71941
428	2	2.01899	-12.4114	4.71941
429	2	2.77848	-12.4114	4.71941
430	2	3.53797	-12.4114	4.71941
431	2	4.29747	-12.4114	4.71941
432	2	5.05696	-12.4114	4.71941
433	2	5.81646	-12.4114	4.71941
434	2	6.57595	-12.4114	4.71941
435	2	7.33544	-12.4114	4.71941
436	2	8.09494	-12.4114	4.71941
437	2	8.85443	-12.4114	4.71941
438	2	9.61392	-12.4114	4.71941
439	2	10.3734	-12.4114	4.71941
440	2	11.1329	-12.4114	4.71941
441	2	11.8924	-12.4114	4.71941
442	2	12.6519	-12.4114	4.71941
443	2	13.4114	-12.4114	4.71941
444	2	14.1709	-12.4114	4.71941
445	2	14.9304	-12.4114	4.71941
446	2	15.6899	-12.4114	4.71941
447	2	16.4494	-12.4114	4.71941
448	2	17.2089	-12.4114	4.71941
449	2	17.9684	-12.4114	4.71941
450	2	18.7278	-12.4114	4.71941
451	2	-18.4873	-11.6519	4.71941
452	2	-17.7278	-11.6519	4.71941
453	2	-16.9684	-11.6519	4.71941
454	2	-16.2089	-11.6519	4.71941
455	2	-15.4494	-11.6519	4.71941
456	2	-14.6899	-11.6519	4.71941
457	2	-13.9304	-11.6519	4.71941
458	2	-13.1709	-11.6519	4.71941
459	2	-12.4114	-11.6519	4.71941
460	2	-11.6519	-11.6519	4.71941
461	2	-10.8924	-11.6519	4.71941
462	2	-10.1329	-11.6519	4.71941
463	2	-9.37342	-11.6519	4.71941
464	2	-8.61392	-11.6519	4.71941
465	2	-7.85443	-11.6519	4.71941
466	2	-7.09494	-11.6519	4.71941
467	2	-6.33544	-11.6519	4.71941
468	2	-5.57595	-11.6519	4.71941
469	2	-4.81646	-11.6519	4.71941
470	2	-4.05696	-11.6519	4.71941
471	2	-3.29747	-11.6519	4.71941
472	2	-2.53797	-11.6519	4.71941
473	2	-1.77848	-11.6519	4.71941
474	2	-1.01899	-11.6519	4.71941
475	2	-0.259494	-11.6519	4.71941
476	2	0.5	-11.6519	4.71941
477	2	1.25949	-11.6519	4.71941
478	2	2.01899	-11.6519	4.71941
479	2	2.77848	-11.6519	4.71941
480	2	3.53797	-11.6519	4.71941
481	2	4.29747	-11.6519	4.71941
482	2	5.05696	-11.6519	4.71941
483	2	5.81646	-11.6519	4.71941
484	2	6.57595	-11.6519	4.71941
485	2	7.33544	-11.6519	4.71941
486	2	8.09494	-11.6519	4.71941
487	2	8.85443	-11.6519	4.71941
488	2	9.61392	-11.6519	4.71941
489	2	10.3734	-11.6519	4.71941
490	2	11.1329	-11.6519	4.71941
491	2	11.8924	-11.6519	4.71941
492	2	12.6519	-11.6519	4.71941
493	2	13.4114	-11.6519	4.71941
494	2	14.1709	-11.6519	4.71941
495	2	14.9304	-11.6519	4.71941
496	2	15.6899	-11.6519	4.71941
497	2	16.4494	-11.6519	4.71941
498	2	17.2089	-11.6519	4.71941
499	2	17.9684	-11.6519	4.71941
500	2	18.7278	-11.6519	4.71941
501	2	-18.4873	-10.8924	4.71941
502	2	-17.7278	-10.8924	4.71941
503	2	-16.9684	-10.8924	4.71941
504	2	-16.2089	-10.8924	4.71941
505	2	-15.4494	-10.8924	4.71941
506	2	-14.6899	-10.8924	4.71941
507	2	-13.9304	-10.8924	4.71941
508	2	-13.1709	-10.8924	4.71941
509	2	-12.4114	-10.8924	4.71941
510	2	-11.6519	-10.8924	4.71941
511	2	-10.8924	-10.8924	4.71941
512	2	-10.1329	-10.8924	4.71941
513	2	-9.37342	-10.8924	4.71941
514	2	-8.61392	-10.8924	4.71941
515	2	-7.85443	-10.8924	4.71941
516	2	-7.09494	-10.8924	4.71941
517	2	-6.33544	-10.8924	4.71941
518	2	-5.57595	-10.8924	4.71941
519	2	-4.81646	-10.8924	4.71941
520	2	-4.05696	-10.8924	4.71941
521	2	-3.29747	-10.8924	4.71941
522	2	-2.53797	-10.8924	4.71941
523	2	-1.77848	-10.8924	4.71941
524	2	-1.01899	-10.8924	4.71941
525	2	-0.259494	-10.8924	4.71941
526	2	0.5	-10.8924	4.71941
527	2	1.25949	-10.8924	4.71941
528	2	2.01899	-10.8924	4.71941
529	2	2.77848	-10.8924	4.71941
530	2	3.53797	-10.8924	4.71941
531	2	4.29747	-10.8924	4.71941
532	2	5.05696	-10.8924	4.71941
533	2	5.81646	-10.8924	4.71941
534	2	6.57595	-10.8924	4.71941
535	2	7.33544	-10.8924	4.71941
536	2	8.09494	-10.8924	4.71941
537	2	8.85443	-10.8924	4.71941
538	2	9.61392	-10.8924	4.71941
539	2	10.3734	-10.8924	4.71941
540	2	11.1329	-10.8924	4.71941
541	2	11.8924	-10.8924	4.71941
542	2	12.6519	-10.8924	4.71941
543	2	13.4114	-10.8924	4.71941
544	2	14.1709	-10.8924	4.71941
545	2	14.9304	-10.8924	4.71941
546	2	15.6899	-10.8924	4.71941
547	2	16.4494	-10.8924	4.71941
548	2	17.2089	-10.8924	4.71941
549	2	17.9684	-10.8924	4.71941
550	2	18.7278	-10.8924	4.71941
551	2	-18.4873	-10.1329	4.71941
552	2	-17.7278	-10.1329	4.71941
553	2	-16.9684	-10.1329	4.71941
554	2	-16.2089	-10.1329	4.71941
555	2	-15.4494	-10.1329	4.71941
556	2	-14.6899	-10.1329	4.71941
557	2	-13.9304	-10.1329	4.71941
558	2	-13.1709	-10.1329	4.71941
559	2	-12.4114	-10.1329	4.71941
560	2	-11.6519	-10.1329	4.71941
561	2	-10.8924	-10.1329	4.71941
562	2	-10.1329	-10.1329	4.71941
563	2	-9.37342	-10.1329	4.71941
564	2	-8.61392	-10.1329	4.71941
565	2	-7.85443	-10.1329	4.71941
566	2	-7.09494	-10.1329	4.71941
567	2	-6.33544	-10.1329	4.71941
568	2	-5.57595	-10.1329	4.71941
569	2	-4.81646	-10.1329	4.71941
570	2	-4.05696	-10.1329	4.71941
571	2	-3.29747	-10.1329	4.71941
572	2	-2.53797	-10.1329	4.71941
573	2	-1.77848	-10.1329	4.71941
574	2	-1.01899	-10.1329	4.71941
575	2	-0.259494	-10.1329	4.71941
576	2	0.5	-10.1329	4.71941
577	2	1.25949	-10.1329	4.71941
578	2	2.01899	-10.1329	4.71941
579	2	2.77848	-10.1329	4.71941
580	2	3.53797	-10.1329	4.71941
581	2	4.29747	-10.1329	4.71941
582	2	5.05696	-10.1329	4.71941
583	2	5.81646	-10.1329	4.71941
584	2	6.57595	-10.1329	4.71941
585	2	7.33544	-10.1329	4.71941
586	2	8.09494	-10.1329	4.71941
587	2	8.85443	-10.1329	4.71941
588	2	9.61392	-10.1329	4.71941
589	2	10.3734	-10.1329	4.71941
590	2	11.1329	-10.1329	4.71941
591	2	11.8924	-10.1329	4.71941
592	2	12.6519	-10.1329	4.71941
593	2	13.4114	-10.1329	4.71941
594	2	14.1709	-10.1329	4.71941
595	2	14.9304	-10.1329	4.71941
596	2	15.6899	-10.1329	4.71941
597	2	16.4494	-10.1329	4.71941
598	2	17.2089	-10.1329	4.71941
599	2	17.9684	-10.1329	4.71941
600	2	18.7278	-10.1329	4.71941
601	2	-18.4873	-9.37342	4.71941
602	2	-17.7278	-9.37342	4.71941
603	2	-16.9684	-9.37342	4.71941
604	2	-16.2089	-9.37342	4.71941
605	2	-15.4494	-9.37342	4.71941
606	2	-14.6899	-9.37342	4.71941
607	2	-13.9304	-9.37342	4.71941
608	2	-13.1709	-9.37342	4.71941
609	2	-12.4114	-9.37342	4.71941
610	2	-11.6519	-9.37342	4.71941
611	2	-10.8924	-9.37342	4.71941
612	2	-10.1329	-9.37342	4.71941
613	2	-9.37342	-9.37342	4.71941
614	2	-8.61392	-9.37342	4.71941
615	2	-7.85443	-9.37342	4.71941
616	2	-7.09494	-9.37342	4.71941
617	2	-6.33544	-9.37342	4.71941
618	2	-5.57595	-9.37342	4.71941
619	2	-4.81646	-9.37342	4.71941
620	2	-4.05696	-9.37342	4.71941
621	2	-3.29747	-9.37342	4.71941
622	2	-2.53797	-9.37342	4.71941
623	2	-1.77848	-9.37342	4.71941
624	2	-1.01899	-9.37342	4.71941
625	2	-0.259494	-9.37342	4.71941
626	2	0.5	-9.37342	4.71941
627	2	1.25949	-9.37342	4.71941
628	2	2.01899	-9.37342	4.71941
629	2	2.77848	-9.37342	4.71941
630	2	3.53797	-9.37342	4.71941
631	2	4.29747	-9.37342	4.71941
632	2	5.05696	-9.37342	4.71941
633	2	5.81646	-9.37342	4.71941
634	2	6.57595	-9.37342	4.71941
635	2	7.33544	-9.37342	4.71941
636	2	8.09494	-9.37342	4.71941
637	2	8.85443	-9.37342	4.71941
638	2	9.61392	-9.37342	4.71941
639	2	10.3734	-9.37342	4.71941
640	2	11.1329	-9.37342	4.71941
641	2	11.8924	-9.37342	4.71941
642	2	12.6519	-9.37342	4.71941
643	2	13.4114	-9.37342	4.71941
644	2	14.1709	-9.37342	4.71941
645	2	14.9304	-9.37342	4.71941
646	2	15.6899	-9.37342	4.71941
647	2	16.4494	-9.37342	4.71941
648	2	17.2089	-9.37342	4.71941
649	2	17.9684	-9.37342	4.71941
650	2	18.7278	-9.37342	4.71941
651	2	-18.4873	-8.61392	4.71941
652	2	-17.7278	-8.61392	4.71941
653	2	-16.9684	-8.61392	4.71941
654	2	-16.2089	-8.61392	4.71941
655	2	-15.4494	-8.61392	4.71941
656	2	-14.6899	-8.61392	4.71941
657	2	-13.9304	-8.61392	4.71941
658	2	-13.1709	-8.61392	4.71941
659	2	-12.4114	-8.61392	4.71941
660	2	-11.6519	-8.61392	4.71941
661	2	-10.8924	-8.61392	4.71941
662	2	-10.1329	-8.61392	4.71941
663	2	-9.37342	-8.61392	4.71941
664	2	-8.61392	-8.61392	4.71941
665	2	-7.85443	-8.61392	4.71941
666	2	-7.09494	-8.61392	4.71941
667	2	-6.33544	-8.61392	4.71941
668	2	-5.57595	-8.61392	4.71941
669	2	-4.81646	-8.61392	4.71941
670	2	-4.05696	-8.61392	4.71941
671	2	-3.29747	-8.61392	4.71941
672	2	-2.53797	-8.61392	4.71941
673	2	-1.77848	-8.61392	4.71941
674	2	-1.01899	-8.61392	4.71941
675	2	-0.259494	-8.61392	4.71941
676	2	0.5	-8.61392	4.71941
677	2	1.25949	-8.61392	4.71941
678	2	2.01899	-8.61392	4.71941
679	2	2.77848	-8.61392	4.71941
680	2	3.53797	-8.61392	4.71941
681	2	4.29747	-8.61392	4.71941
682	2	5.05696	-8.61392	4.71941
683	2	5.81646	-8.61392	4.71941
684	2	6.57595	-8.61392	4.71941
685	2	7.33544	-8.61392	4.71941
686	2	8.09494	-8.61392	4.71941
687	2	8.85443	-8.61392	4.71941
688	2	9.61392	-8.61392	4.71941
689	2	10.3734	-8.61392	4.71941
690	2	11.1329	-8.61392	4.71941
691	2	11.8924	-8.61392	4.71941
692	2	12.6519	-8.61392	4.71941
693	2	13.4114	-8.61392	4.71941
694	2	14.1709	-8.61392	4.71941
695	2	14.9304	-8.61392	4.71941
696	2	15.6899	-8.61392	4.71941
697	2	16.4494	-8.61392	4.71941
698	2	17.2089	-8.61392	4.71941
699	2	17.9684	-8.61392	4.71941
700	2	18.7278	-8.61392	4.71941
701	2	-18.4873	-7.85443	4.71941
702	2	-17.7278	-7.85443	4.71941
703	2	-16.9684	-7.85443	4.71941
704	2	-16.2089	-7.85443	4.71941
705	2	-15.4494	-7.85443	4.71941
706	2	-14.6899	-7.85443	4.71941
707	2	-13.9304	-7.85443	4.71941
708	2	-13.1709	-7.85443	4.71941
709	2	-12.4114	-7.85443	4.71941
710	2	-11.6519	-7.85443	4.71941
711	2	-10.8924	-7.85443	4.71941
712	2	-10.1329	-7.85443	4.71941
713	2	-9.37342	-7.85443	4.71941
714	2	-8.61392	-7.85443	4.71941
715	2	-7.85443	-7.85443	4.71941
716	2	-7.09494	-7.85443	4.71941
717	2	-6.33544	-7.85443	4.71941
718	2	-5.57595	-7.85443	4.71941
719	2	-4.81646	-7.85443	4.71941
720	2	-4.05696	-7.85443	4.71941
721	2	-3.29747	-7.85443	4.71941
722	2	-2.53797	-7.85443	4.71941
723	2	-1.77848	-7.85443	4.71941
724	2	-1.01899	-7.85443	4.71941
725	2	-0.259494	-7.85443	4.71941
726	2	0.5	-7.85443	4.71941
727	2	1.25949	-7.85443	4.71941
728	2	2.01899	-7.85443	4.71941
729	2	2.77848	-7.85443	4.71941
730	2	3.53797	-7.85443	4.71941
731	2	4.29747	-7.85443	4.71941
732	2	5.05696	-7.85443	4.71941
733	2	5.81646	-7.85443	4.71941
734	2	6.57595	-7.85443	4.71941
735	2	7.33544	-7.85443	4.71941
736	2	8.09494	-7.85443	4.71941
737	2	8.85443	-7.85443	4.71941
738	2	9.61392	-7.85443	4.71941
739	2	10.3734	-7.85443	4.71941
740	2	11.1329	-7.85443	4.71941
741	2	11.8924	-7.85443	4.71941
742	2	12.6519	-7.85443	4.71941
743	2	13.4114	-7.85443	4.71941
744	2	14.1709	-7.85443	4.71941
745	2	14.9304	-7.85443	4.71941
746	2	15.6899	-7.85443	4.71941
747	2	16.4494	-7.85443	4.71941
748	2	17.2089	-7.85443	4.71941
749	2	17.9684	-7.85443	4.71941
750	2	18.7278	-7.85443	4.71941
751	2	-18.4873	-7.09494	4.71941
752	2	-17.7278	-7.09494	4.71941
753	2	-16.9684	-7.09494	4.71941
754	2	-16.2089	-7.09494	4.71941
755	2	-15.4494	-7.09494	4.71941
756	2	-14.6899	-7.09494	4.71941
757	2	-13.9304	-7.09494	4.71941
758	2	-13.1709	-7.09494	4.71941
759	2	-12.4114	-7.09494	4.71941
760	2	-11.6519	-7.09494	4.71941
761	2	-10.8924	-7.09494	4.71941
762	2	-10.1329	-7.09494	4.71941
763	2	-9.37342	-7.09494	4.71941
764	2	-8.61392	-7.09494	4.71941
765	2	-7.85443	-7.09494	4.71941
766	2	-7.09494	-7.09494	4.71941
767	2	-6.33544	-7.09494	4.71941
768	2	-5.57595	-7.09494	4.71941
769	2	-4.81646	-7.09494	4.71941
770	2	-4.05696	-7.09494	4.71941
771	2	-3.29747	-7.09494	4.71941
772	2	-2.53797	-7.09494	4.71941
773	2	-1.77848	-7.09494	4.71941
774	2	-1.01899	-7.09494	4.71941
775	2	-0.259494	-7.09494	4.71941
776	2	0.5	-7.09494	4.71941
777	2	1.25949	-7.09494	4.71941
778	2	2.01899	-7.09494	4.71941
779	2	2.77848	-7.09494	4.71941
780	2	3.53797	-7.09494	4.71941
781	2	4.29747	-7.09494	4.71941
782	2	5.05696	-7.09494	4.71941
783	2	5.81646	-7.09494	4.71941
784	2	6.57595	-7.09494	4.71941
785	2	7.33544	-7.09494	4.71941
786	2	8.09494	-7.09494	4.71941
787	2	8.85443	-7.09494	4.71941
788	2	9.61392	-7.09494	4.71941
789	2	10.3734	-7.09494	4.71941
790	2	11.1329	-7.09494	4.71941
791	2	11.8924	-7.09494	4.71941
792	2	12.6519	-7.09494	4.71941
793	2	13.4114	-7.09494	4.71941
794	2	14.1709	-7.09494	4.71941
795	2	14.9304	-7.09494	4.71941
796	2	15.6899	-7.09494	4.71941
797	2	16.4494	-7.09494	4.71941
798	2	17.2089	-7.09494	4.71941
799	2	17.9684	-7.09494	4.71941
800	2	18.7278	-7.09494	4.71941
801	2	-18.4873	-6.33544	4.71941
802	2	-17.7278	-6.33544	4.71941
803	2	-16.9684	-6.33544	4.71941
804	2	-16.2089	-6.33544	4.71941
805	2	-15.4494	-6.33544	4.71941
806	2	-14.6899	-6.33544	4.71941
807	2	-13.9304	-6.33544	4.71941
808	2	-13.1709	-6.33544	4.71941
809	2	-12.4114	-6.33544	4.71941
810	2	-11.6519	-6.33544	4.71941
811	2	-10.8924	-6.33544	4.71941
812	2	-10.1329	-6.33544	4.71941
813	2	-9.37342	-6.33544	4.71941
814	2	-8.61392	-6.33544	4.71941
815	2	-7.85443	-6.33544	4.71941
816	2	-7.09494	-6.33544	4.71941
817	2	-6.33544	-6.33544	4.71941
818	2	-5.57595	-6.33544	4.71941
819	2	-4.81646	-6.33544	4.71941
820	2	-4.05696	-6.33544	4.71941
821	2	-3.29747	-6.33544	4.71941
822	2	-2.53797	-6.33544	4.71941
823	2	-1.77848	-6.33544	4.71941
824	2	-1.01899	-6.33544	4.71941
825	2	-0.259494	-6.33544	4.71941
826	2	0.5	-6.33544	4.71941
827	2	1.25949	-6.33544	4.71941
828	2	2.01899	-6.33544	4.71941
829	2	2.77848	-6.33544	4.71941
830	2	3.53797	-6.33544	4.71941
831	2	4.29747	-6.33544	4.71941
832	2	5.05696	-6.33544	4.71941
833	2	5.81646	-6.33544	4.71941
834	2	6.57595	-6.33544	4.71941
835	2	7.33544	-6.33544	4.71941
836	2	8.09494	-6.33544	4.71941
837	2	8.85443	-6.33544	4.71941
838	2	9.61392	-6.33544	4.71941
839	2	10.3734	-6.33544	4.71941
840	2	11.1329	-6.33544	4.71941
841	2	11.8924	-6.33544	4.71941
842	2	12.6519	-6.33544	4.71941
843	2	13.4114	-6.33544	4.71941
844	2	14.1709	-6.33544	4.71941
845	2	14.9304	-6.33544	4.71941
846	2	15.6899	-6.33544	4.71941
847	2	16.4494	-6.33544	4.71941
848	2	17.2089	-6.33544	4.71941
849	2	17.9684	-6.33544	4.71941
850	2	18.7278	-6.33544	4.71941
851	2	-18.4873	-5.57595	4.71941
852	2	-17.7278	-5.57595	4.71941
853	2	-16.9684	-5.57595	4.71941
854	2	-16.2089	-5.57595	4.71941
855	2	-15.4494	-5.57595	4.71941
856	2	-14.6899	-5.57595	4.71941
857	2	-13.9304	-5.57595	4.71941
858	2	-13.1709	-5.57595	4.71941
859	2	-12.4114	-5.57595	4.71941
860	2	-11.6519	-5.57595	4.71941
861	2	-10.8924	-5.57595	4.71941
862	2	-10.1329	-5.57595	4.71941
863	2	-9.37342	-5.57595	4.71941
864	2	-8.61392	-5.57595	4.71941
865	2	-7.85443	-5.57595	4.71941
866	2	-7.09494	-5.57595	4.71941
867	2	-6.33544	-5.57595	4.71941
868	2	-5.57595	-5.57595	4.71941
869	2	-4.81646	-5.57595	4.71941
870	2	-4.05696	-5.57595	4.71941
871	2	-3.29747	-5.57595	4.71941
872	2	-2.53797	-5.57595	4.71941
873	2	-1.77848	-5.57595	4.71941
874	2	-1.01899	-5.57595	4.71941
875	2	-0.259494	-5.57595	4.71941
876	2	0.5	-5.57595	4.71941
877	2	1.25949	-5.57595	4.71941
878	2	2.01899	-5.57595	4.71941
879	2	2.77848	-5.57595	4.71941
880	2	3.53797	-5.57595	4.71941
881	2	4.29747	-5.57595	4.71941
882	2	5.05696	-5.57595	4.71941
883	2	5.81646	-5.57595	4.71941
884	2	6.57595	-5.57595	4.71941
885	2	7.33544	-5.57595	4.71941
886	2	8.09494	-5.57595	4.71941
887	2	8.85443	-5.57595	4.71941
888	2	9.61392	-5.57595	4.71941
889	2	10.3734	-5.57595	4.71941
890	2	11.1329	-5.57595	4.71941
891	2	11.8924	-5.57595	4.71941
892	2	12.6519	-5.57595	4.71941
893	2	13.4114	-5.57595	4.71941
894	2	14.1709	-5.57595	4.71941
895	2	14.9304	-5.57595	4.71941
896	2	15.6899	-5.57595	4.71941
897	2	16.4494	-5.57595	4.71941
898	2	17.2089	-5.57595	4.71941
899	2	17.9684	-5.57595	4.71941
900	2	18.7278	-5.57595	4.71941
901	2	-18.4873	-4.81646	4.71941
902	2	-17.7278	-4.81646	4.71941
903	2	-16.9684	-4.81646	4.71941
904	2	-16.2089	-4.81646	4.71941
905	2	-15.4494	-4.81646	4.71941
906	2	-14.6899	-4.81646	4.71941
907	2	-13.9304	-4.81646	4.71941
908	2	-13.1709	-4.81646	4.71941
909	2	-12.4114	-4.81646	4.71941
910	2	-11.6519	-4.81646	4.71941
911	2	-10.8924	-4.81646	4.71941
912	2	-10.1329	-4.81646	4.71941
913	2	-9.37342	-4.81646	4.71941
914	2	-8.61392	-4.81646	4.71941
915	2	-7.85443	-4.81646	4.71941
916	2	-7.09494	-4.81646	4.71941
917	2	-6.33544	-4.81646	4.71941
918	2	-5.57595	-4.81646	4.71941
919	2	-4.81646	-4.81646	4.71941
920	2	-4.05696	-4.81646	4.71941
921	2	-3.29747	-4.81646	4.71941
922	2	-2.53797	-4.81646	4.71941
923	2	-1.77848	-4.81646	4.71941