LAMMPS 2005 data file for 38

   1502 atoms
   1501 bonds
   3000 angles
   4491 dihedrals
   2000 impropers

   5 atom types
   7 bond types
  15 angle types
  22 dihedral types
  13 improper types

     0.000000000    24.717200000 xlo xhi
     0.000000000    24.717200000 ylo yhi
     0.000000000    24.717200000 zlo zhi

Masses

   1   1.007970
   2  12.011150
   3  12.011150
   4  18.998400
   5  12.011150

Pair Coeffs

   1   0.0200000000   2.9950000000 
   2   0.0540000000   4.0100000000 
   3   0.0540000000   4.0100000000 
   4   0.0598000000   3.2000000000 
   5   0.0540000000   4.0100000000 

Bond Coeffs

  1     1.1010   345.0000  -691.8900   844.6000 
  2     1.5300   299.6700  -501.7700   679.8100 
  3     1.5300   299.6700  -501.7700   679.8100 
  4     1.3900   403.0320     0.0000     0.0000 
  5     1.1010   345.0000  -691.8900   844.6000 
  6     1.5300   299.6700  -501.7700   679.8100 
  7     1.5300   299.6700  -501.7700   679.8100 

Angle Coeffs

  1   110.7700    41.4530   -10.6040     5.1290 
  2   107.6600    39.6410   -12.9210    -2.4318 
  3   112.6700    39.5160    -7.4430    -9.5583 
  4   109.2000    68.3715     0.0000     0.0000 
  5   109.2000    68.3715     0.0000     0.0000 
  6   109.1026    71.9700     0.0000     0.0000 
  7   110.7700    41.4530   -10.6040     5.1290 
  8   112.6700    39.5160    -7.4430    -9.5583 
  9   107.6600    39.6410   -12.9210    -2.4318 
 10   112.6700    39.5160    -7.4430    -9.5583 
 11   112.6700    39.5160    -7.4430    -9.5583 
 12   109.2000    68.3715     0.0000     0.0000 
 13   110.7700    41.4530   -10.6040     5.1290 
 14   112.6700    39.5160    -7.4430    -9.5583 
 15   112.6700    39.5160    -7.4430    -9.5583 

Dihedral Coeffs

  1     0.0000     0.0000     0.0316     0.0000    -0.1681     0.0000 
  2     0.0000     0.0000     0.0000     0.0000    -0.1000     0.0000 
  3     0.0000     0.0000     0.0316     0.0000    -0.1681     0.0000 
  4     0.0000     0.0000     0.0514     0.0000    -0.1430     0.0000 
  5     0.0000     0.0000     0.0000     0.0000    -0.1000     0.0000 
  6     0.0000     0.0000     0.0000     0.0000     0.1500     0.0000 
  7     0.0000     0.0000     0.0514     0.0000    -0.1430     0.0000 
  8     0.0000     0.0000     0.0316     0.0000    -0.1681     0.0000 
  9     0.0000     0.0000     0.0514     0.0000    -0.1430     0.0000 
 10     0.0000     0.0000     0.0316     0.0000    -0.1681     0.0000 
 11     0.0000     0.0000     0.0514     0.0000    -0.1430     0.0000 
 12     0.0000     0.0000     0.0000     0.0000     0.1500     0.0000 
 13     0.0000     0.0000     0.0000     0.0000    -0.1000     0.0000 
 14    -0.1432     0.0000     0.0617     0.0000    -0.1083     0.0000 
 15     0.0000     0.0000     0.0316     0.0000    -0.1681     0.0000 
 16     0.0000     0.0000     0.0514     0.0000    -0.1430     0.0000 
 17     0.0000     0.0000     0.0514     0.0000    -0.1430     0.0000 
 18     0.0000     0.0000     0.0000     0.0000     0.1500     0.0000 
 19     0.0000     0.0000     0.0514     0.0000    -0.1430     0.0000 
 20     0.0000     0.0000     0.0514     0.0000    -0.1430     0.0000 
 21     0.0000     0.0000     0.0000     0.0000     0.1500     0.0000 
 22     0.0000     0.0000     0.0316     0.0000    -0.1681     0.0000 

Improper Coeffs

  1     0.0000     0.0000 
  2     0.0000     0.0000 
  3     0.0000     0.0000 
  4     0.0000     0.0000 
  5     0.0000     0.0000 
  6     0.0000     0.0000 
  7     0.0000     0.0000 
  8     0.0000     0.0000 
  9     0.0000     0.0000 
 10     0.0000     0.0000 
 11     0.0000     0.0000 
 12     0.0000     0.0000 
 13     0.0000     0.0000 

BondBond Coeffs

  1     3.3872     1.1010     1.5300 
  2     5.3316     1.1010     1.1010 
  3     0.0000     1.5300     1.5300 
  4     0.0000     1.5300     1.3900 
  5     0.0000     1.3900     1.5300 
  6     0.0000     1.3900     1.3900 
  7     3.3872     1.1010     1.5300 
  8     0.0000     1.5300     1.5300 
  9     5.3316     1.1010     1.1010 
 10     0.0000     1.5300     1.5300 
 11     0.0000     1.5300     1.5300 
 12     0.0000     1.5300     1.3900 
 13     3.3872     1.1010     1.5300 
 14     0.0000     1.5300     1.5300 
 15     0.0000     1.5300     1.5300 

BondAngle Coeffs

  1    11.4210    20.7540     1.1010     1.5300 
  2    18.1030    18.1030     1.1010     1.1010 
  3     8.0160     8.0160     1.5300     1.5300 
  4     0.0000     0.0000     1.5300     1.3900 
  5     0.0000     0.0000     1.3900     1.5300 
  6     0.0000     0.0000     1.3900     1.3900 
  7    11.4210    20.7540     1.1010     1.5300 
  8     8.0160     8.0160     1.5300     1.5300 
  9    18.1030    18.1030     1.1010     1.1010 
 10     8.0160     8.0160     1.5300     1.5300 
 11     8.0160     8.0160     1.5300     1.5300 
 12     0.0000     0.0000     1.5300     1.3900 
 13    11.4210    20.7540     1.1010     1.5300 
 14     8.0160     8.0160     1.5300     1.5300 
 15     8.0160     8.0160     1.5300     1.5300 

AngleAngle Coeffs

  1     0.2738     0.2738    -0.4825   107.6600   110.7700   110.7700 
  2    -0.3157    -0.3157    -0.3157   107.6600   107.6600   107.6600 
  3     0.0000     0.0000     0.0000   109.2000   109.2000   112.6700 
  4     0.0000     0.0000     0.0000   109.2000   109.1026   109.2000 
  5     0.0000     0.0000     0.0000   109.1026   109.2000   109.2000 
  6     0.2738     0.2738    -0.4825   107.6600   110.7700   110.7700 
  7    -1.3199     0.1184    -1.3199   110.7700   112.6700   110.7700 
  8     0.0000     0.0000     0.0000   109.2000   112.6700   109.2000 
  9     0.0000     0.0000     0.0000   109.2000   109.2000   112.6700 
 10     0.0000     0.0000     0.0000   109.2000   109.1026   109.2000 
 11     0.2738     0.2738    -0.4825   107.6600   110.7700   110.7700 
 12    -1.3199     0.1184    -1.3199   110.7700   112.6700   110.7700 
 13     0.0000     0.0000     0.0000   112.6700   109.2000   109.2000 

AngleAngleTorsion Coeffs

  1   -16.1640   110.7700   112.6700 
  2     0.0000   110.7700   109.2000 
  3   -16.1640   112.6700   110.7700 
  4   -22.0450   112.6700   112.6700 
  5     0.0000   109.2000   110.7700 
  6     0.0000   109.2000   112.6700 
  7   -22.0450   112.6700   112.6700 
  8   -16.1640   112.6700   110.7700 
  9   -22.0450   112.6700   112.6700 
 10   -16.1640   112.6700   110.7700 
 11   -22.0450   112.6700   112.6700 
 12     0.0000   109.2000   112.6700 
 13     0.0000   109.2000   109.2000 
 14   -12.5640   110.7700   110.7700 
 15   -16.1640   110.7700   112.6700 
 16   -22.0450   112.6700   112.6700 
 17   -22.0450   112.6700   112.6700 
 18     0.0000   109.2000   112.6700 
 19   -22.0450   112.6700   112.6700 
 20   -22.0450   112.6700   112.6700 
 21     0.0000   112.6700   109.2000 
 22   -16.1640   110.7700   112.6700 

EndBondTorsion Coeffs

1     0.0814     0.0591     0.2219     0.2486     0.2422    -0.0925     1.1010     1.5300 
2     0.0000     0.0000     0.0000     0.0000     0.0000     0.0000     1.1010     1.3900 
3     0.2486     0.2422    -0.0925     0.0814     0.0591     0.2219     1.5300     1.1010 
4    -0.0732     0.0000     0.0000    -0.0732     0.0000     0.0000     1.5300     1.5300 
5     0.0000     0.0000     0.0000     0.0000     0.0000     0.0000     1.3900     1.1010 
6     0.0000     0.0000     0.0000     0.0000     0.0000     0.0000     1.3900     1.5300 
7    -0.0732     0.0000     0.0000    -0.0732     0.0000     0.0000     1.5300     1.5300 
8     0.2486     0.2422    -0.0925     0.0814     0.0591     0.2219     1.5300     1.1010 
9    -0.0732     0.0000     0.0000    -0.0732     0.0000     0.0000     1.5300     1.5300 
10     0.2486     0.2422    -0.0925     0.0814     0.0591     0.2219     1.5300     1.1010 
11    -0.0732     0.0000     0.0000    -0.0732     0.0000     0.0000     1.5300     1.5300 
12     0.0000     0.0000     0.0000     0.0000     0.0000     0.0000     1.3900     1.5300 
13     0.0000     0.0000     0.0000     0.0000     0.0000     0.0000     1.3900     1.3900 
14     0.2130     0.3120     0.0777     0.2130     0.3120     0.0777     1.1010     1.1010 
15     0.0814     0.0591     0.2219     0.2486     0.2422    -0.0925     1.1010     1.5300 
16    -0.0732     0.0000     0.0000    -0.0732     0.0000     0.0000     1.5300     1.5300 
17    -0.0732     0.0000     0.0000    -0.0732     0.0000     0.0000     1.5300     1.5300 
18     0.0000     0.0000     0.0000     0.0000     0.0000     0.0000     1.3900     1.5300 
19    -0.0732     0.0000     0.0000    -0.0732     0.0000     0.0000     1.5300     1.5300 
20    -0.0732     0.0000     0.0000    -0.0732     0.0000     0.0000     1.5300     1.5300 
21     0.0000     0.0000     0.0000     0.0000     0.0000     0.0000     1.5300     1.3900 
22     0.0814     0.0591     0.2219     0.2486     0.2422    -0.0925     1.1010     1.5300 

MiddleBondTorsion Coeffs

  1   -14.8790    -3.6581    -0.3138     1.5300 
  2     0.0000     0.0000     0.0000     1.5300 
  3   -14.8790    -3.6581    -0.3138     1.5300 
  4   -17.7870    -7.1877     0.0000     1.5300 
  5     0.0000     0.0000     0.0000     1.5300 
  6     0.0000     0.0000     0.0000     1.5300 
  7   -17.7870    -7.1877     0.0000     1.5300 
  8   -14.8790    -3.6581    -0.3138     1.5300 
  9   -17.7870    -7.1877     0.0000     1.5300 
 10   -14.8790    -3.6581    -0.3138     1.5300 
 11   -17.7870    -7.1877     0.0000     1.5300 
 12     0.0000     0.0000     0.0000     1.5300 
 13     0.0000     0.0000     0.0000     1.5300 
 14   -14.2610    -0.5322    -0.4864     1.5300 
 15   -14.8790    -3.6581    -0.3138     1.5300 
 16   -17.7870    -7.1877     0.0000     1.5300 
 17   -17.7870    -7.1877     0.0000     1.5300 
 18     0.0000     0.0000     0.0000     1.5300 
 19   -17.7870    -7.1877     0.0000     1.5300 
 20   -17.7870    -7.1877     0.0000     1.5300 
 21     0.0000     0.0000     0.0000     1.5300 
 22   -14.8790    -3.6581    -0.3138     1.5300 

BondBond13 Coeffs

  1     0.0000     1.1010     1.5300 
  2     0.0000     1.1010     1.3900 
  3     0.0000     1.5300     1.1010 
  4     0.0000     1.5300     1.5300 
  5     0.0000     1.3900     1.1010 
  6     0.0000     1.3900     1.5300 
  7     0.0000     1.5300     1.5300 
  8     0.0000     1.5300     1.1010 
  9     0.0000     1.5300     1.5300 
 10     0.0000     1.5300     1.1010 
 11     0.0000     1.5300     1.5300 
 12     0.0000     1.3900     1.5300 
 13     0.0000     1.3900     1.3900 
 14     0.0000     1.1010     1.1010 
 15     0.0000     1.1010     1.5300 
 16     0.0000     1.5300     1.5300 
 17     0.0000     1.5300     1.5300 
 18     0.0000     1.3900     1.5300 
 19     0.0000     1.5300     1.5300 
 20     0.0000     1.5300     1.5300 
 21     0.0000     1.5300     1.3900 
 22     0.0000     1.1010     1.5300 

AngleTorsion Coeffs

  1     0.3113     0.4516    -0.1988    -0.2454     0.0000    -0.1136   110.7700   112.6700 
  2     0.0000     0.0000     0.0000     0.0000     0.0000     0.0000   110.7700   109.2000 
  3    -0.2454     0.0000    -0.1136     0.3113     0.4516    -0.1988   112.6700   110.7700 
  4     0.3886    -0.3139     0.1389     0.3886    -0.3139     0.1389   112.6700   112.6700 
  5     0.0000     0.0000     0.0000     0.0000     0.0000     0.0000   109.2000   110.7700 
  6     0.0000     0.0000     0.0000     0.0000     0.0000     0.0000   109.2000   112.6700 
  7     0.3886    -0.3139     0.1389     0.3886    -0.3139     0.1389   112.6700   112.6700 
  8    -0.2454     0.0000    -0.1136     0.3113     0.4516    -0.1988   112.6700   110.7700 
  9     0.3886    -0.3139     0.1389     0.3886    -0.3139     0.1389   112.6700   112.6700 
 10    -0.2454     0.0000    -0.1136     0.3113     0.4516    -0.1988   112.6700   110.7700 
 11     0.3886    -0.3139     0.1389     0.3886    -0.3139     0.1389   112.6700   112.6700 
 12     0.0000     0.0000     0.0000     0.0000     0.0000     0.0000   109.2000   112.6700 
 13     0.0000     0.0000     0.0000     0.0000     0.0000     0.0000   109.2000   109.2000 
 14    -0.8085     0.5569    -0.2466    -0.8085     0.5569    -0.2466   110.7700   110.7700 
 15     0.3113     0.4516    -0.1988    -0.2454     0.0000    -0.1136   110.7700   112.6700 
 16     0.3886    -0.3139     0.1389     0.3886    -0.3139     0.1389   112.6700   112.6700 
 17     0.3886    -0.3139     0.1389     0.3886    -0.3139     0.1389   112.6700   112.6700 
 18     0.0000     0.0000     0.0000     0.0000     0.0000     0.0000   109.2000   112.6700 
 19     0.3886    -0.3139     0.1389     0.3886    -0.3139     0.1389   112.6700   112.6700 
 20     0.3886    -0.3139     0.1389     0.3886    -0.3139     0.1389   112.6700   112.6700 
 21     0.0000     0.0000     0.0000     0.0000     0.0000     0.0000   112.6700   109.2000 
 22     0.3113     0.4516    -0.1988    -0.2454     0.0000    -0.1136   110.7700   112.6700 

Atoms

      1      0   1  0.053000     9.165120612    20.635502101    20.913083821
      2      0   2 -0.159000     8.597750432    21.574003300    20.823872525
      3      0   3  0.500000     7.972421733    21.681561354    19.435239007
      4      0   1  0.053000     9.283732830    22.408657905    21.031448888
      5      0   1  0.053000     7.832998497    21.575039506    21.611218518
      6      0   4 -0.250000     7.063009434    20.638808534    19.311879686
      7      0   4 -0.250000     8.969854968    21.488759910    18.490031491
      8      0   5 -0.106000     7.254350865    23.005930583    19.169181266
      9      0   3  0.500000     6.921589928    23.209803649    17.688101769
     10      0   1  0.053000     7.879707967    23.846254524    19.514077815
     11      0   1  0.053000     6.328134133    23.034488385    19.763827299
     12      0   4 -0.250000     6.248426622    22.087985300    17.223697307
     13      0   4 -0.250000     8.107603391    23.331223939    16.977878204
     14      0   5 -0.106000     6.066325024    24.452399896    17.429406547
     15      0   3  0.500000     5.766278930    24.682830212    15.945385079
     16      0   1  0.053000     6.579811201    25.339343142    17.834436725
     17      0   1  0.053000     5.120353858    24.359008551    17.985173470
     18      0   4 -0.250000     5.232059834    23.523122410    15.401240742
     19      0   4 -0.250000     6.959392530    24.960649708    15.292709739
     20      0   5 -0.106000     4.781008111    25.834592445    15.721270599
     21      0   3  0.500000     4.575463760    26.166357202    14.242228972
     22      0   1  0.053000     5.140587563    26.734008520    16.244238970
     23      0   1  0.053000     3.813205827    25.577129850    16.180070874
     24      0   4 -0.250000     4.168805810    25.016360556    13.584711103
     25      0   4 -0.250000     5.785880561    26.575403916    13.704066258
     26      0   5 -0.106000     3.520701312    27.252085667    14.000163411
     27      0   3  0.500000     3.552903631    27.778389053    12.562276425
     28      0   1  0.053000     3.680752440    28.089584307    14.696183338
     29      0   1  0.053000     2.523699048    26.850925961    14.235382983
     30      0   4 -0.250000     3.478349434    26.707951535    11.685080963
     31      0   4 -0.250000     4.752460486    28.434915084    12.353912635
     32      0   5 -0.106000     2.420287612    28.746880676    12.226672022
     33      0   3  0.500000     2.547717119    29.312534860    10.808418031
     34      0   1  0.053000     2.417281957    29.573479990    12.953033769
     35      0   1  0.053000     1.454186715    28.232155449    12.333288930
     36      0   4 -0.250000     2.545289504    28.265412017     9.898356458
     37      0   4 -0.250000     3.740723710    30.003772391    10.689360380
     38      0   5 -0.106000     1.415731943    30.272809904    10.454682311
     39      0   3  0.500000     1.513074751    30.811631348     9.022211024
     40      0   1  0.053000     1.426423160    31.119589101    11.159210730
     41      0   1  0.053000     0.450243727    29.761323489    10.582941341
     42      0   4 -0.250000     1.492355907    29.734488143     8.138671416
     43      0   4 -0.250000     2.735244255    31.453646286     8.863742063
     44      0   5 -0.106000     0.424182425    32.324157244     7.230468926
     45      0   3  0.500000     0.375935320    31.777913636     8.668937973
     46      0   1  0.053000     1.396948025    32.814131017     7.050507808
     47      0   1  0.053000     0.377363518    31.470316229     6.530542995
     48      0   4 -0.250000    -0.838622717    31.112333786     8.811686287
     49      0   4 -0.250000     0.366808030    32.851834264     9.556697198
     50      0   5 -0.106000    -0.705898230    33.318116042     6.899610219
     51      0   3  0.500000    -0.926354181    33.501268866     5.391165289
     52      0   1  0.053000    -0.477259904    34.289076457     7.369368526
     53      0   1  0.053000    -1.651483398    32.971647371     7.350465148
     54      0   4 -0.250000    -1.483708273    32.322464384     4.914656323
     55      0   4 -0.250000     0.310435554    33.682229718     4.792171794
     56      0   5 -0.106000    -1.820292987    34.682358083     5.024019479
     57      0   3  0.500000    -2.296049834    34.586521473     3.577870752
     58      0   1  0.053000    -1.265281462    35.619699461     5.167607533
     59      0   1  0.053000    -2.690170241    34.720537160     5.696861371
     60      0   4 -0.250000    -3.152364784    33.499439186     3.498747506
     61      0   4 -0.250000    -1.202784704    34.365102715     2.752049658
     62      0   5 -0.106000    -3.052681104    35.820745248     3.093134806
     63      0   3  0.500000    -3.451627953    35.703461482     1.622557944
     64      0   1  0.053000    -2.434363358    36.719497867     3.236951279
     65      0   1  0.053000    -3.950458052    35.958890601     3.714407555
     66      0   4 -0.250000    -4.049430559    34.470128527     1.419814646
     67      0   4 -0.250000    -2.306232542    35.781013441     0.842191530
     68      0   5 -0.106000    -4.444941862    36.775008712     1.178516187
     69      0   3  0.500000    -4.677251186    36.774252177    -0.334640099
     70      0   1  0.053000    -4.084412427    37.766963826     1.493596494
     71      0   1  0.053000    -5.402985849    36.613721089     1.699252270
     72      0   4 -0.250000    -4.951249111    35.485391482    -0.768127318
     73      0   4 -0.250000    -3.518654311    37.217671845    -0.954873604
     74      0   5 -0.106000    -5.840610822    37.684269661    -0.736660484
     75      0   3  0.500000    -6.125456511    37.698327447    -2.240814262
     76      0   1  0.053000    -5.623157499    38.702674553    -0.383050241
     77      0   1  0.053000    -6.752616009    37.373519403    -0.204675978
     78      0   4 -0.250000    -6.715036843    36.486920684    -2.582259338
     79      0   4 -0.250000    -4.935008261    37.830658681    -2.939573354
     80      0   5 -0.106000    -7.069945485    38.836231081    -2.641238448
     81      0   3  0.500000    -7.349415852    38.904788309    -4.145775839
     82      0   1  0.053000    -6.635088526    39.796527010    -2.324508052
     83      0   1  0.053000    -8.013193501    38.736547782    -2.083703463
     84      0   4 -0.250000    -7.875691140    37.693798360    -4.578531247
     85      0   4 -0.250000    -6.145287590    39.130251925    -4.796981019
     86      0   5 -0.106000    -8.307518103    40.045428003    -4.505551420
     87      0   3  0.500000    -8.669086856    40.106867299    -5.994766823
     88      0   1  0.053000    -7.846100031    41.002753308    -4.210287005
     89      0   1  0.053000    -9.228349064    39.954823825    -3.909880986
     90      0   4 -0.250000    -9.368510772    38.960955178    -6.353246120
     91      0   4 -0.250000    -7.493020011    40.164864011    -6.730139365
     92      0   5 -0.106000    -9.514072110    41.343998418    -6.322902248
     93      0   3  0.500000    -9.951829242    41.447021974    -7.790055918
     94      0   1  0.053000    -8.928923485    42.243350055    -6.063848683
     95      0   1  0.053000   -10.407578743    41.361600547    -5.677575373
     96      0   4 -0.250000   -10.865219426    40.436698695    -8.064965103
     97      0   4 -0.250000    -8.844031806    41.271435260    -8.606994590
     98      0   5 -0.106000   -10.595363505    42.810487698    -8.082885569
     99      0   3  0.500000   -11.024324714    43.009133529    -9.540332896
    100      0   1  0.053000    -9.882113266    43.606517749    -7.808413903
    101      0   1  0.053000   -11.471726329    42.938510000    -7.426234626
    102      0   4 -0.250000   -11.952862890    42.032001918    -9.866694764
    103      0   4 -0.250000    -9.918374793    42.862558402   -10.365579276
    104      0   5 -0.106000   -11.664574261    44.380308887    -9.795952227
    105      0   3  0.500000   -11.829359281    44.677562938   -11.289914625
    106      0   1  0.053000   -11.045948217    45.169345446    -9.338125615
    107      0   1  0.053000   -12.643377441    44.418868611    -9.291538414
    108      0   4 -0.250000   -12.368474630    43.566583350   -11.920042071
    109      0   4 -0.250000   -10.568044809    44.916137171   -11.812212947
    110      0   5 -0.106000   -12.701566011    45.897659678   -11.600847233
    111      0   3  0.500000   -12.805095361    46.163465129   -13.107611843
    112      0   1  0.053000   -12.270226339    46.780587756   -11.105865345
    113      0   1  0.053000   -13.709534588    45.753156372   -11.179202709
    114      0   4 -0.250000   -13.340100165    45.036239235   -13.713712463
    115      0   4 -0.250000   -11.526282962    46.371871013   -13.602928606
    116      0   5 -0.106000   -13.652687562    47.383411432   -13.482785872
    117      0   3  0.500000   -13.803187708    47.532772819   -15.001491407
    118      0   1  0.053000   -13.190080908    48.293312751   -13.067785492
    119      0   1  0.053000   -14.647406549    47.298655918   -13.018375488
    120      0   4 -0.250000   -14.327603334    46.356947676   -15.515425429
    121      0   4 -0.250000   -12.544047591    47.733461920   -15.547958098
    122      0   5 -0.106000   -14.709287320    48.689498673   -15.426473983
    123      0   3  0.500000   -14.880795435    48.776616843   -16.946819277
    124      0   1  0.053000   -14.296861094    49.638229330   -15.047181142
    125      0   1  0.053000   -15.699291792    48.565538222   -14.958796512
    126      0   4 -0.250000   -15.374183699    47.570713407   -17.422728114
    127      0   4 -0.250000   -13.640938188    49.009490369   -17.522177751
    128      0   5 -0.106000   -15.832912137    49.896085787   -17.372086806
    129      0   3  0.500000   -16.105847185    49.937926128   -18.879185373
    130      0   1  0.053000   -15.420040250    50.865394494   -17.047773760
    131      0   1  0.053000   -16.792907217    49.766280074   -16.845652427
    132      0   4 -0.250000   -16.731624775    48.762709130   -19.263357829
    133      0   4 -0.250000   -14.903955118    50.048835501   -19.562148216
    134      0   5 -0.106000   -16.995853194    51.121493684   -19.267446954
    135      0   3  0.500000   -17.471072320    51.102185987   -20.725477596
    136      0   1  0.053000   -16.444877971    52.057171098   -19.074722568
    137      0   1  0.053000   -17.880643869    51.128793284   -18.609606152
    138      0   4 -0.250000   -18.258734132    49.970366094   -20.914678161
    139      0   4 -0.250000   -16.360701752    50.979940817   -21.558026130
    140      0   5 -0.106000   -18.938630935    52.240169580   -22.527477409
    141      0   3  0.500000   -18.274711207    52.349927421   -21.134447986
    142      0   1  0.053000   -18.147274232    52.169145908   -23.294501305
    143      0   1  0.053000   -19.504810438    51.293607814   -22.584817060
    144      0   4 -0.250000   -19.273090249    52.596720995   -20.193585227
    145      0   4 -0.250000   -17.423372350    53.452316766   -21.167695415
    146      0   5 -0.106000   -19.891146551    53.400864512   -22.883339863
    147      0   3  0.500000   -20.467177603    53.324962582   -24.310848256
    148      0   1  0.053000   -19.365984799    54.365055064   -22.758596514
    149      0   1  0.053000   -20.722988903    53.414639548   -22.156775718
    150      0   4 -0.250000   -20.968334167    52.044776447   -24.514036155
    151      0   4 -0.250000   -19.422127792    53.529110519   -25.202061502
    152      0   5 -0.106000   -21.564514286    54.352712988   -24.589350776
    153      0   3  0.500000   -22.117245411    54.254775413   -26.012397653
    154      0   1  0.053000   -21.161754137    55.365450892   -24.432757713
    155      0   1  0.053000   -22.385839113    54.220198731   -23.866023403
    156      0   4 -0.250000   -22.584671327    52.965884274   -26.228236901
    157      0   4 -0.250000   -21.090734570    54.507449580   -26.912033342
    158      0   5 -0.106000   -23.251769255    55.246213467   -26.273138379
    159      0   3  0.500000   -23.812663776    55.158633434   -27.691943424
    160      0   1  0.053000   -22.884348639    56.270067333   -26.100863302
    161      0   1  0.053000   -24.062758045    55.073170330   -25.546205686
    162      0   4 -0.250000   -24.235289911    53.858138576   -27.929709530
    163      0   4 -0.250000   -22.802887983    55.466486450   -28.593512666
    164      0   5 -0.106000   -24.981639484    56.115137752   -27.921748012
    165      0   3  0.500000   -25.536911805    56.041275687   -29.341951201
    166      0   1  0.053000   -24.648481185    57.145844766   -27.730022336
    167      0   1  0.053000   -25.782881571    55.899824492   -27.196313710
    168      0   4 -0.250000   -25.886848207    54.727345639   -29.623847715
    169      0   4 -0.250000   -24.544188918    56.440457638   -30.225788561
    170      0   5 -0.106000   -26.761651040    56.930564094   -29.542682616
    171      0   3  0.500000   -27.217954325    56.988187684   -30.997913693
    172      0   1  0.053000   -26.538706120    57.951702234   -29.196994399
    173      0   1  0.053000   -27.586038516    56.558652771   -28.916714136
    174      0   4 -0.250000   -27.320778678    55.695184916   -31.493025069
    175      0   4 -0.250000   -26.273298473    57.692144819   -31.730985373
    176      0   5 -0.106000   -28.577241839    57.665393899   -31.149803897
    177      0   3  0.500000   -28.916802643    58.072059601   -32.572737105
    178      0   1  0.053000   -28.642146226    58.545446296   -30.488892233
    179      0   1  0.053000   -29.353534089    56.962031787   -30.806667381
    180      0   4 -0.250000   -30.285627542    58.271628752   -32.591554426
    181      0   4 -0.250000   -28.648109561    57.008375563   -33.423545669
    182      0   5 -0.106000   -28.208238852    59.333237142   -33.083899926
    183      0   3  0.500000   -28.956787101    59.969086782   -34.257317896
    184      0   1  0.053000   -27.176018867    59.096416402   -33.384645148
    185      0   1  0.053000   -28.131113015    60.073340322   -32.270699234
    186      0   4 -0.250000   -30.203865076    60.366648899   -33.800903251
    187      0   4 -0.250000   -29.122095254    59.020714094   -35.259486187
    188      0   5 -0.106000   -28.271123649    61.206704913   -34.836044797
    189      0   3  0.500000   -28.967283004    61.698706313   -36.106201837
    190      0   1  0.053000   -27.210384593    60.996798481   -35.045957936
    191      0   1  0.053000   -28.290767747    62.004928351   -34.077891444
    192      0   4 -0.250000   -30.341274107    61.591331140   -35.948997977
    193      0   4 -0.250000   -28.580746214    60.870689064   -37.152623099
    194      0   5 -0.106000   -28.621258483    63.144752213   -36.473150134
    195      0   3  0.500000   -29.446585019    63.643524153   -37.657480678
    196      0   1  0.053000   -27.545558018    63.229821267   -36.692952998
    197      0   1  0.053000   -28.818937453    63.795977657   -35.609104324
    198      0   4 -0.250000   -30.786236311    63.612220471   -37.299879958
    199      0   4 -0.250000   -29.253652472    62.763973249   -38.714017770
    200      0   5 -0.106000   -29.098702596    65.062450667   -38.120543877
    201      0   3  0.500000   -30.106039850    65.540514274   -39.167275578
    202      0   1  0.053000   -28.076649394    65.081240053   -38.531218398
    203      0   1  0.053000   -29.104299499    65.752796167   -37.262808512
    204      0   4 -0.250000   -31.338471520    65.669358994   -38.538720554
    205      0   4 -0.250000   -30.210905760    64.566936001   -40.151338158
    206      0   5 -0.106000   -29.796287515    66.884688433   -39.828934156
    207      0   3  0.500000   -30.663251009    67.050956188   -41.077986307
    208      0   1  0.053000   -28.731175657    66.945830814   -40.104256170
    209      0   1  0.053000   -29.983706181    67.703395967   -39.116092217
    210      0   4 -0.250000   -31.959786632    66.647242147   -40.784443706
    211      0   4 -0.250000   -30.147579377    66.212559296   -42.057748417
    212      0   5 -0.106000   -30.732475513    68.461561682   -41.654448249
    213      0   3  0.500000   -31.412853622    68.454348278   -43.024728532
    214      0   1  0.053000   -29.723637069    68.890956716   -41.753091565
    215      0   1  0.053000   -31.284719572    69.116147104   -40.964772670